 
             +---------------------------------------------------+
             |                                                   |
             |                   WANNIER90                       |
             |                                                   |
             +---------------------------------------------------+
             |                                                   |
             |        Welcome to the Maximally-Localized         |
             |        Generalized Wannier Functions code         |
             |            http://www.wannier.org                 |
             |                                                   |
             |  Wannier90 v2.x Authors:                          |
             |    Arash A. Mostofi  (Imperial College London)    |
             |    Giovanni Pizzi    (EPFL)                       |
             |    Ivo Souza         (Universidad del Pais Vasco) |
             |    Jonathan R. Yates (University of Oxford)       |
             |                                                   |
             |  Wannier90 Contributors:                          |
             |    Young-Su Lee       (KIST, S. Korea)            |
             |    Matthew Shelley    (Imperial College London)   |
             |    Nicolas Poilvert   (Penn State University)     |
             |    Raffaello Bianco   (Paris 6 and CNRS)          |
             |    Gabriele Sclauzero (ETH Zurich)                |
             |    David Strubbe (MIT, USA)                       |
             |    Rei Sakuma (Lund University, Sweden)           |
             |    Yusuke Nomura (U. Tokyo, Japan)                |
             |    Takashi Koretsune (Riken, Japan)               |
             |    Yoshiro Nohara (ASMS Co. Ltd., Japan)          |
             |    Ryotaro Arita (Riken, Japan)                   |
             |    Lorenzo Paulatto (UPMC Paris)                  |
             |    Florian Thole (ETH Zurich)                     |
             |    Pablo Garcia Fernandez (Unican, Spain)         |
             |    Dominik Gresch (ETH Zurich)                    |
             |    Samuel Ponce (University of Oxford)            |
             |    Marco Gibertini (EPFL)                         |
             |    Christian Stieger (ETHZ, CH)                   |
             |    Stepan Tsirkin (Universidad del Pais Vasco)    |
             |                                                   |
             |  Wannier77 Authors:                               |
             |    Nicola Marzari    (EPFL)                       |
             |    Ivo Souza         (Universidad del Pais Vasco) |
             |    David Vanderbilt  (Rutgers University)         |
             |                                                   |
             |  Please cite                                      |
             |                                                   |
             |  [ref] "An updated version of Wannier90:          |
             |        A Tool for Obtaining Maximally Localised   |
             |        Wannier Functions", A. A. Mostofi,         |
             |        J. R. Yates, G. Pizzi, Y. S. Lee,          |
             |        I. Souza, D. Vanderbilt and N. Marzari,    |
             |        Comput. Phys. Commun. 185, 2309 (2014)     |
             |        http://dx.doi.org/10.1016/j.cpc.2014.05.003|
             |                                                   |
             |  in any publications arising from the use of      |
             |  this code. For the method please cite            |
             |                                                   |
             |  [ref] "Maximally Localized Generalised Wannier   |
             |         Functions for Composite Energy Bands"     |
             |         N. Marzari and D. Vanderbilt              |
             |         Phys. Rev. B 56 12847 (1997)              |
             |                                                   |
             |  [ref] "Maximally Localized Wannier Functions     |
             |         for Entangled Energy Bands"               |
             |         I. Souza, N. Marzari and D. Vanderbilt    |
             |         Phys. Rev. B 65 035109 (2001)             |
             |                                                   |
             |                                                   |
             | Copyright (c) 1996-2017                           |
             |        Arash A. Mostofi, Jonathan R. Yates,       |
             |        Young-Su Lee, Giovanni Pizzi, Ivo Souza,   |
             |        David Vanderbilt and Nicola Marzari        |
             |                                                   |
             |        Release: 2.1.0   13th January 2017         |
             |                                                   |
             | This program is free software; you can            |
             | redistribute it and/or modify it under the terms  |
             | of the GNU General Public License as published by |
             | the Free Software Foundation; either version 2 of |
             | the License, or (at your option) any later version|
             |                                                   |
             | This program is distributed in the hope that it   |
             | will be useful, but WITHOUT ANY WARRANTY; without |
             | even the implied warranty of MERCHANTABILITY or   |
             | FITNESS FOR A PARTICULAR PURPOSE. See the GNU     |
             | General Public License for more details.          |
             |                                                   |
             | You should have received a copy of the GNU General|
             | Public License along with this program; if not,   |
             | write to the Free Software Foundation, Inc.,      |
             | 675 Mass Ave, Cambridge, MA 02139, USA.           |
             |                                                   |
             +---------------------------------------------------+
             |    Execution started on 28Mar2018 at 20:07:17     |
             +---------------------------------------------------+
 
 ******************************************************************************
 * -> Using CODATA 2006 constant values                                       *
 *    (http://physics.nist.gov/cuu/Constants/index.html)                      *
 * -> Using Bohr value from CODATA                                            *
 ******************************************************************************
 
 
                                    ------
                                    SYSTEM
                                    ------
 
                              Lattice Vectors (Ang)
                    a_1    -1.931500   1.931500   6.362000
                    a_2     1.931500  -1.931500   6.362000
                    a_3     1.931500   1.931500  -6.362000
 
                   Unit Cell Volume:      94.93866  (Ang^3)
 
                        Reciprocal-Space Vectors (Ang^-1)
                    b_1     0.000000   1.626504   0.493806
                    b_2     1.626504   0.000000   0.493806
                    b_3     1.626504   1.626504   0.000000
  
 *----------------------------------------------------------------------------*
 |   Site       Fractional Coordinate          Cartesian Coordinate (Ang)     |
 +----------------------------------------------------------------------------+
 | 1    1   0.35240   0.35240   0.00000   |    0.00000   0.00000   4.48394    |
 | 2    1   0.64760   0.64760   0.00000   |    0.00000   0.00000   8.24006    |
 | 3    1   0.00000   0.00000   0.00000   |    0.00000   0.00000   0.00000    |
 | 4    1   0.00000   0.50000   0.50000   |    1.93150   0.00000   0.00000    |
 | 5    1   0.50000   0.00000   0.50000   |    0.00000   1.93150   0.00000    |
 | 6    1   0.16350   0.16350   0.00000   |    0.00000   0.00000   2.08037    |
 | 7    1   0.83650   0.83650   0.00000   |    0.00000   0.00000  10.64363    |
 *----------------------------------------------------------------------------*
  
                                ------------
                                K-POINT GRID
                                ------------
  
             Grid size = 10 x 10 x 10      Total points = 1000
  
  
 *---------------------------------- MAIN ------------------------------------*
 |  Number of Wannier Functions               :                 3             |
 |  Number of input Bloch states              :                 6             |
 |  Output verbosity (1=low, 5=high)          :                 1             |
 |  Timing Level (1=low, 5=high)              :                 1             |
 |  Optimisation (0=memory, 3=speed)          :                 3             |
 |  Length Unit                               :               Ang             |
 |  Post-processing setup (write *.nnkp)      :                 F             |
 |  Using Gamma-only branch of algorithms     :                 F             |
 *----------------------------------------------------------------------------*
 *------------------------------- WANNIERISE ---------------------------------*
 |  Total number of iterations                :             10000             |
 |  Number of CG steps before reset           :                 5             |
 |  Trial step length for line search         :             2.000             |
 |  Convergence tolerence                     :         0.100E-09             |
 |  Convergence window                        :                 3             |
 |  Iterations between writing output         :               100             |
 |  Iterations between backing up to disk     :               100             |
 |  Write r^2_nm to file                      :                 F             |
 |  Write xyz WF centres to file              :                 T             |
 |  Write on-site energies <0n|H|0n> to file  :                 F             |
 |  Use guiding centre to control phases      :                 T             |
 |  Use phases for initial projections        :                 F             |
 |  Iterations before starting guiding centres:                 0             |
 |  Iterations between using guiding centres  :                 1             |
 *----------------------------------------------------------------------------*
 *------------------------------- DISENTANGLE --------------------------------*
 |  Using band disentanglement                :                 T             |
 |  Total number of iterations                :             10000             |
 |  Mixing ratio                              :             0.500             |
 |  Convergence tolerence                     :         1.000E-10             |
 |  Convergence window                        :                 3             |
 *----------------------------------------------------------------------------*
 *-------------------------------- PLOTTING ----------------------------------*
 |  Plotting interpolated bandstructure       :                 T             |
 |   Number of K-path sections                :                 4             |
 |   Divisions along first K-path section     :                50             |
 |   Output format                            :           gnuplot             |
 |   Output mode                              :               s-k             |
 *----------------------------------------------------------------------------*
 |   K-space path sections:                                                   |
 |    From:  G    0.000  0.000  0.000     To:  N    0.250 -0.250  0.250       |
 |    From:  N    0.250 -0.250  0.250     To:  X    0.500 -0.500  0.000       |
 |    From:  X    0.500 -0.500  0.000     To:  G    0.000  0.000  0.000       |
 |    From:  G    0.000  0.000  0.000     To:  X    0.250  0.250 -0.250       |
 *----------------------------------------------------------------------------*
 |  Plotting Hamiltonian in WF basis          :                 T             |
 *----------------------------------------------------------------------------*
 Time to read parameters        0.056 (sec)

 *---------------------------------- K-MESH ----------------------------------*
 +----------------------------------------------------------------------------+
 |                    Distance to Nearest-Neighbour Shells                    |
 |                    ------------------------------------                    |
 |          Shell             Distance (Ang^-1)          Multiplicity         |
 |          -----             -----------------          ------------         |
 |             1                   0.098761                      2            |
 |             2                   0.169981                      8            |
 |             3                   0.197522                      2            |
 |             4                   0.220003                      8            |
 |             5                   0.230022                      4            |
 |             6                   0.250328                      8            |
 |             7                   0.295662                      8            |
 |             8                   0.296283                      2            |
 |             9                   0.303192                      8            |
 |            10                   0.325301                      4            |
 |            11                   0.339962                      8            |
 |            12                   0.367034                     16            |
 +----------------------------------------------------------------------------+
 | The b-vectors are chosen automatically                                     |
 | The following shells are used:   1,  2                                     |
 +----------------------------------------------------------------------------+
 |                        Shell   # Nearest-Neighbours                        |
 |                        -----   --------------------                        |
 |                          1               2                                 |
 |                          2               8                                 |
 +----------------------------------------------------------------------------+
 | Completeness relation is fully satisfied [Eq. (B1), PRB 56, 12847 (1997)]  |
 +----------------------------------------------------------------------------+
 |                  b_k Vectors (Ang^-1) and Weights (Ang^2)                  |
 |                  ----------------------------------------                  |
 |            No.         b_k(x)      b_k(y)      b_k(z)        w_b           |
 |            ---        --------------------------------     --------        |
 |             1         0.000000    0.000000    0.098761    41.812291        |
 |             2         0.000000    0.000000   -0.098761    41.812291        |
 |             3         0.162650    0.000000    0.049381     9.449954        |
 |             4         0.000000    0.162650    0.049381     9.449954        |
 |             5        -0.162650    0.000000   -0.049381     9.449954        |
 |             6         0.000000    0.162650   -0.049381     9.449954        |
 |             7         0.000000   -0.162650   -0.049381     9.449954        |
 |             8         0.162650    0.000000   -0.049381     9.449954        |
 |             9         0.000000   -0.162650    0.049381     9.449954        |
 |            10        -0.162650    0.000000    0.049381     9.449954        |
 +----------------------------------------------------------------------------+
 |                           b_k Directions (Ang^-1)                          |
 |                           -----------------------                          |
 |            No.           x           y           z                         |
 |            ---        --------------------------------                     |
 |             1         0.000000    0.000000    0.098761                     |
 |             2         0.162650    0.000000    0.049381                     |
 |             3         0.000000    0.162650    0.049381                     |
 |             4         0.000000    0.162650   -0.049381                     |
 |             5         0.162650    0.000000   -0.049381                     |
 +----------------------------------------------------------------------------+
  
 *============================================================================*
 |                              MEMORY ESTIMATE                               |
 |         Maximum RAM allocated during each phase of the calculation         |
 *============================================================================*
 |                        Disentanglement            8.16 Mb                  |
 |                            Wannierise:            5.22 Mb                  |
 |                          plot_wannier:            5.22 Mb                  |
 *----------------------------------------------------------------------------*
  
 Starting a new Wannier90 calculation ...

 Time to get kmesh              0.241 (sec)

 Reading overlaps from w2w.mmn    : Sr2RuO4

 Reading projections from w2w.amn : Sr2RuO4

 Time to read overlaps          0.236 (sec)

 *------------------------------- DISENTANGLE --------------------------------*
 +----------------------------------------------------------------------------+
 |                              Energy  Windows                               |
 |                              ---------------                               |
 |                   Outer:   -2.84667  to    0.74493  (eV)                   |
 |                   Inner:   -1.80000  to    3.00000  (eV)                   |
 +----------------------------------------------------------------------------+
   Number of target bands to extract:    3

                   Unitarised projection of Wannier functions                  
                   ------------------------------------------                  
   A_mn = <psi_m|g_n> --> S = A.A^+ --> U = S^-1/2.A
   In dis_project... done
   Using an inner window (linner = T)
   In dis_proj_froz... done

                   Extraction of optimally-connected subspace                  
                   ------------------------------------------                  
 +---------------------------------------------------------------------+<-- DIS
 |  Iter     Omega_I(i-1)      Omega_I(i)      Delta (frac.)    Time   |<-- DIS
 +---------------------------------------------------------------------+<-- DIS
       1      11.02462977      11.01529530       8.474E-04      0.56    <-- DIS
       2      11.01676833      11.01331496       3.136E-04      0.57    <-- DIS
       3      11.01429348      11.01217680       1.922E-04      0.58    <-- DIS
       4      11.01273079      11.01151218       1.107E-04      0.59    <-- DIS
       5      11.01177323      11.01111793       5.951E-05      0.61    <-- DIS
       6      11.01120007      11.01088048       2.902E-05      0.65    <-- DIS
       7      11.01086413      11.01073540       1.169E-05      0.68    <-- DIS
       8      11.01067152      11.01064556       2.357E-06      0.70    <-- DIS
       9      11.01056401      11.01058925      -2.292E-06      0.72    <-- DIS
      10      11.01050624      11.01055356      -4.298E-06      0.74    <-- DIS
      11      11.01047703      11.01053071      -4.875E-06      0.76    <-- DIS
      12      11.01046387      11.01051595      -4.730E-06      0.77    <-- DIS
      13      11.01045946      11.01050633      -4.257E-06      0.79    <-- DIS
      14      11.01045959      11.01050002      -3.672E-06      0.80    <-- DIS
      15      11.01046189      11.01049585      -3.085E-06      0.82    <-- DIS
      16      11.01046504      11.01049308      -2.547E-06      0.85    <-- DIS
      17      11.01046835      11.01049122      -2.078E-06      0.88    <-- DIS
      18      11.01047146      11.01048997      -1.681E-06      0.90    <-- DIS
      19      11.01047423      11.01048913      -1.352E-06      0.93    <-- DIS
      20      11.01047662      11.01048855      -1.083E-06      0.95    <-- DIS
      21      11.01047863      11.01048815      -8.652E-07      0.98    <-- DIS
      22      11.01048029      11.01048788      -6.894E-07      1.00    <-- DIS
      23      11.01048166      11.01048770      -5.484E-07      1.03    <-- DIS
      24      11.01048277      11.01048757      -4.356E-07      1.05    <-- DIS
      25      11.01048367      11.01048747      -3.456E-07      1.07    <-- DIS
      26      11.01048439      11.01048741      -2.740E-07      1.09    <-- DIS
      27      11.01048498      11.01048736      -2.170E-07      1.11    <-- DIS
      28      11.01048544      11.01048733      -1.717E-07      1.13    <-- DIS
      29      11.01048581      11.01048731      -1.358E-07      1.15    <-- DIS
      30      11.01048611      11.01048729      -1.073E-07      1.16    <-- DIS
      31      11.01048635      11.01048728      -8.467E-08      1.18    <-- DIS
      32      11.01048654      11.01048727      -6.676E-08      1.19    <-- DIS
      33      11.01048669      11.01048727      -5.257E-08      1.20    <-- DIS
      34      11.01048681      11.01048726      -4.134E-08      1.22    <-- DIS
      35      11.01048690      11.01048726      -3.246E-08      1.23    <-- DIS
      36      11.01048698      11.01048726      -2.544E-08      1.24    <-- DIS
      37      11.01048704      11.01048726      -1.990E-08      1.25    <-- DIS
      38      11.01048708      11.01048725      -1.553E-08      1.27    <-- DIS
      39      11.01048712      11.01048725      -1.209E-08      1.28    <-- DIS
      40      11.01048715      11.01048725      -9.379E-09      1.29    <-- DIS
      41      11.01048717      11.01048725      -7.251E-09      1.30    <-- DIS
      42      11.01048719      11.01048725      -5.583E-09      1.31    <-- DIS
      43      11.01048720      11.01048725      -4.277E-09      1.33    <-- DIS
      44      11.01048722      11.01048725      -3.258E-09      1.34    <-- DIS
      45      11.01048722      11.01048725      -2.464E-09      1.35    <-- DIS
      46      11.01048723      11.01048725      -1.848E-09      1.36    <-- DIS
      47      11.01048724      11.01048725      -1.371E-09      1.38    <-- DIS
      48      11.01048724      11.01048725      -1.004E-09      1.39    <-- DIS
      49      11.01048724      11.01048725      -7.232E-10      1.40    <-- DIS
      50      11.01048725      11.01048725      -5.089E-10      1.41    <-- DIS
      51      11.01048725      11.01048725      -3.468E-10      1.42    <-- DIS
      52      11.01048725      11.01048725      -2.251E-10      1.44    <-- DIS
      53      11.01048725      11.01048725      -1.348E-10      1.45    <-- DIS
      54      11.01048725      11.01048725      -6.866E-11      1.46    <-- DIS
      55      11.01048725      11.01048725      -2.099E-11      1.47    <-- DIS
      56      11.01048725      11.01048725       1.258E-11      1.48    <-- DIS

             <<<      Delta < 1.000E-10  over  3 iterations     >>>
             <<< Disentanglement convergence criteria satisfied >>>

        Final Omega_I    11.01048725 (Ang^2)

 +----------------------------------------------------------------------------+

 Time to disentangle bands      0.972 (sec)

 Writing checkpoint file w2w.chk... done

 
 *------------------------------- WANNIERISE ---------------------------------*
 +--------------------------------------------------------------------+<-- CONV
 | Iter  Delta Spread     RMS Gradient      Spread (Ang^2)      Time  |<-- CONV
 +--------------------------------------------------------------------+<-- CONV
 
 ------------------------------------------------------------------------------
 Initial State
  WF centre and spread    1  (  0.000000,  0.000000,  0.000000 )     3.51112562
  WF centre and spread    2  (  0.000000,  0.000000,  0.000000 )     3.76216232
  WF centre and spread    3  (  0.000000,  0.000000,  0.000000 )     3.76216232
  Sum of centres and spreads (  0.000000,  0.000000,  0.000000 )    11.03545025
 
      0     0.110E+02     0.0000000000       11.0354502535       1.52  <-- CONV
        O_D=      0.0000000 O_OD=      0.0249630 O_TOT=     11.0354503 <-- SPRD
 ------------------------------------------------------------------------------
 Cycle:      1
  WF centre and spread    1  ( -0.000000, -0.000000,  0.000000 )     3.51083807
  WF centre and spread    2  (  0.000000,  0.000000, -0.000000 )     3.76084372
  WF centre and spread    3  (  0.000000,  0.000000,  0.000000 )     3.76084372
  Sum of centres and spreads (  0.000000,  0.000000,  0.000000 )    11.03252552
 
      1    -0.292E-02     0.0327252546       11.0325255187       1.54  <-- CONV
        O_D=      0.0000000 O_OD=      0.0220383 O_TOT=     11.0325255 <-- SPRD
 Delta: O_D=  0.7597364E-32 O_OD= -0.2924735E-02 O_TOT= -0.2924735E-02 <-- DLTA
 ------------------------------------------------------------------------------

             <<<     Delta < 1.000E-10  over  3 iterations     >>>
             <<< Wannierisation convergence criteria satisfied >>>

 Final State
  WF centre and spread    1  ( -0.000000, -0.000000, -0.000000 )     3.51070357
  WF centre and spread    2  ( -0.000000,  0.000000, -0.000000 )     3.76062123
  WF centre and spread    3  (  0.000000,  0.000000, -0.000000 )     3.76062123
  Sum of centres and spreads ( -0.000000,  0.000000, -0.000000 )    11.03194604
 
         Spreads (Ang^2)       Omega I      =    11.010487251
        ================       Omega D      =     0.000000000
                               Omega OD     =     0.021458786
    Final Spread (Ang^2)       Omega Total  =    11.031946037
 ------------------------------------------------------------------------------

 Wannier centres written to file w2w_centres.xyz

 ------------------------------------------------------------------------------
          Projection of Bands in Outer Window on all Wannier Functions
         --------------------------------------------------------------
                    Kpt  Band      Eigval      |Projection|^2
                 -----------------------------------------------
                     1     1      -2.800031      1.00000000
                     1     2      -2.123941      0.00000000
                     1     3      -1.987345      0.00000000
                     1     4      -1.987345      0.00000000
                     1     5      -1.009459      1.00000000
                     1     6      -1.009459      1.00000000
                     2     1      -2.345316      0.01548036
                     2     2      -2.099619      0.00000000
                     2     3      -2.071289      0.00000000
                     2     4      -1.931768      0.98451964
                     2     5      -1.002893      1.00000000
                     2     6      -0.964951      1.00000000
                     3     1      -2.575247      0.00000000
                     3     2      -2.174940      0.00000000
                     3     3      -2.119256      0.00000000
                     3     4      -0.929761      1.00000000
                     3     5      -0.769029      1.00000000
                     3     6      -0.676333      1.00000000
                     4     1      -2.494077      0.00000000
                     4     2      -2.231616      0.00000000
                     4     3      -2.138208      0.00000000
                     4     4      -0.218002      1.00000000
                     4     5      -0.159921      1.00000000
                     4     6      -0.082548      1.00000000
                     5     1      -2.529212      0.00000000
                     5     2      -2.243578      0.00000000
                     5     3      -1.967542      0.00000000
                     5     4       0.273381      1.00000000
                     5     5       0.320894      1.00000000
                     5     6       0.508953      1.00000000
                     6     1      -2.429586      0.00000000
                     6     2      -2.241420      0.00000000
                     6     3      -1.805738      0.00000000
                     6     4       0.460172      1.00000000
                     6     5       0.520896      1.00000000
                     6     6       0.724855      1.00000000
                     7     1      -2.529212      0.00000000
                     7     2      -2.243578      0.00000000
                     7     3      -1.967542      0.00000000
                     7     4       0.273381      1.00000000
                     7     5       0.320894      1.00000000
                     7     6       0.508953      1.00000000
                     8     1      -2.494077      0.00000000
                     8     2      -2.231616      0.00000000
                     8     3      -2.138208      0.00000000
                     8     4      -0.218002      1.00000000
                     8     5      -0.159921      1.00000000
                     8     6      -0.082548      1.00000000
                     9     1      -2.575247      0.00000000
                     9     2      -2.174940      0.00000000
                     9     3      -2.119256      0.00000000
                     9     4      -0.929761      1.00000000
                     9     5      -0.769029      1.00000000
                     9     6      -0.676333      1.00000000
                    10     1      -2.345316      0.01548036
                    10     2      -2.099619      0.00000000
                    10     3      -2.071289      0.00000000
                    10     4      -1.931768      0.98451964
                    10     5      -1.002893      1.00000000
                    10     6      -0.964951      1.00000000
                    11     1      -2.225055      0.95776410
                    11     2      -2.181877      0.00000000
                    11     3      -2.116159      0.00000000
                    11     4      -2.048063      0.04223590
                    11     5      -0.996422      1.00000000
                    11     6      -0.985266      1.00000000
                    12     1      -2.646330      0.00000000
                    12     2      -2.190631      0.00000000
                    12     3      -2.108069      0.00000000
                    12     4      -1.298227      1.00000000
                    12     5      -0.947660      1.00000000
                    12     6      -0.783841      1.00000000
                    13     1      -2.500783      0.00000000
                    13     2      -2.268413      0.00000000
                    13     3      -2.165363      0.00000000
                    13     4      -0.630381      1.00000000
                    13     5      -0.414088      1.00000000
                    13     6      -0.275885      1.00000000
                    14     1      -2.508138      0.00000000
                    14     2      -2.283823      0.00000000
                    14     3      -2.103859      0.00000000
                    14     4      -0.108498      1.00000000
                    14     5       0.232076      1.00000000
                    14     6       0.259685      1.00000000
                    15     1      -2.521781      0.00000000
                    15     2      -2.283954      0.00000000
                    15     3      -1.870761      0.00000000
                    15     4       0.318834      1.00000000
                    15     5       0.472702      1.00000000
                    15     6       0.624294      1.00000000
                    16     1      -2.521781      0.00000000
                    16     2      -2.283954      0.00000000
                    16     3      -1.870761      0.00000000
                    16     4       0.318834      1.00000000
                    16     5       0.472702      1.00000000
                    16     6       0.624294      1.00000000
                    17     1      -2.508138      0.00000000
                    17     2      -2.283823      0.00000000
                    17     3      -2.103859      0.00000000
                    17     4      -0.108498      1.00000000
                    17     5       0.232076      1.00000000
                    17     6       0.259685      1.00000000
                    18     1      -2.500783      0.00000000
                    18     2      -2.268413      0.00000000
                    18     3      -2.165363      0.00000000
                    18     4      -0.630381      1.00000000
                    18     5      -0.414088      1.00000000
                    18     6      -0.275885      1.00000000
                    19     1      -2.646330      0.00000000
                    19     2      -2.190631      0.00000000
                    19     3      -2.108069      0.00000000
                    19     4      -1.298227      1.00000000
                    19     5      -0.947660      1.00000000
                    19     6      -0.783841      1.00000000
                    20     1      -2.225055      0.95776410
                    20     2      -2.181877      0.00000000
                    20     3      -2.116159      0.00000000
                    20     4      -2.048063      0.04223590
                    20     5      -0.996422      1.00000000
                    20     6      -0.985266      1.00000000
                    21     1      -2.551199      0.00000000
                    21     2      -2.217386      0.00000000
                    21     3      -2.118108      0.00000000
                    21     4      -1.415202      1.00000000
                    21     5      -0.964190      1.00000000
                    21     6      -0.804608      1.00000000
                    22     1      -2.537905      0.00000000
                    22     2      -2.377014      0.00000000
                    22     3      -2.172037      0.00000000
                    22     4      -0.882168      1.00000000
                    22     5      -0.610164      1.00000000
                    22     6      -0.345050      1.00000000
                    23     1      -2.537567      0.00000000
                    23     2      -2.374926      0.00000000
                    23     3      -2.215999      0.00000000
                    23     4      -0.538387      1.00000000
                    23     5       0.034046      1.00000000
                    23     6       0.157566      1.00000000
                    24     1      -2.563328      0.00000000
                    24     2      -2.345182      0.00000000
                    24     3      -2.044486      0.00000000
                    24     4      -0.067132      1.00000000
                    24     5       0.404139      1.00000000
                    24     6       0.410621      1.00000000
                    25     1      -2.569732      0.00000000
                    25     2      -2.347944      0.00000000
                    25     3      -1.865082      0.00000000
                    25     4       0.255803      1.00000000
                    25     5       0.351702      1.00000000
                    25     6       0.509713      1.00000000
                    26     1      -2.563328      0.00000000
                    26     2      -2.345182      0.00000000
                    26     3      -2.044486      0.00000000
                    26     4      -0.067132      1.00000000
                    26     5       0.404139      1.00000000
                    26     6       0.410621      1.00000000
                    27     1      -2.537567      0.00000000
                    27     2      -2.374926      0.00000000
                    27     3      -2.215999      0.00000000
                    27     4      -0.538387      1.00000000
                    27     5       0.034046      1.00000000
                    27     6       0.157566      1.00000000
                    28     1      -2.537905      0.00000000
                    28     2      -2.377014      0.00000000
                    28     3      -2.172037      0.00000000
                    28     4      -0.882168      1.00000000
                    28     5      -0.610164      1.00000000
                    28     6      -0.345050      1.00000000
                    29     1      -2.551199      0.00000000
                    29     2      -2.217386      0.00000000
                    29     3      -2.118108      0.00000000
                    29     4      -1.415202      1.00000000
                    29     5      -0.964190      1.00000000
                    29     6      -0.804608      1.00000000
                    30     1      -2.368319      0.01140290
                    30     2      -2.153335      0.00391723
                    30     3      -2.106495      0.00000000
                    30     4      -1.935715      0.98467987
                    30     5      -0.954268      1.00000000
                    30     6      -0.940850      1.00000000
                    31     1      -2.574977      0.00000000
                    31     2      -2.397765      0.00000000
                    31     3      -2.171435      0.00000000
                    31     4      -0.934089      1.00000000
                    31     5      -0.663516      1.00000000
                    31     6      -0.366041      1.00000000
                    32     1      -2.569944      0.00000000
                    32     2      -2.461015      0.00000000
                    32     3      -2.262227      0.00000000
                    32     4      -0.818070      1.00000000
                    32     5      -0.092208      1.00000000
                    32     6       0.101781      1.00000000
                    33     1      -2.651983      0.00000000
                    33     2      -2.392298      0.00000000
                    33     3      -2.220628      0.00000000
                    33     4      -0.490295      1.00000000
                    33     5       0.214095      1.00000000
                    33     6       0.339617      1.00000000
                    34     1      -2.645539      0.00000000
                    34     2      -2.348907      0.00000000
                    34     3      -1.991671      0.00000000
                    34     4      -0.092461      1.00000000
                    34     5       0.247130      1.00000000
                    34     6       0.262254      1.00000000
                    35     1      -2.645539      0.00000000
                    35     2      -2.348907      0.00000000
                    35     3      -1.991671      0.00000000
                    35     4      -0.092461      1.00000000
                    35     5       0.247130      1.00000000
                    35     6       0.262254      1.00000000
                    36     1      -2.651983      0.00000000
                    36     2      -2.392298      0.00000000
                    36     3      -2.220628      0.00000000
                    36     4      -0.490295      1.00000000
                    36     5       0.214095      1.00000000
                    36     6       0.339617      1.00000000
                    37     1      -2.569944      0.00000000
                    37     2      -2.461015      0.00000000
                    37     3      -2.262227      0.00000000
                    37     4      -0.818070      1.00000000
                    37     5      -0.092208      1.00000000
                    37     6       0.101781      1.00000000
                    38     1      -2.574977      0.00000000
                    38     2      -2.397765      0.00000000
                    38     3      -2.171435      0.00000000
                    38     4      -0.934089      1.00000000
                    38     5      -0.663516      1.00000000
                    38     6      -0.366041      1.00000000
                    39     1      -2.658209      0.00000000
                    39     2      -2.254663      0.00000000
                    39     3      -2.151528      0.00000000
                    39     4      -1.304334      1.00000000
                    39     5      -0.883631      1.00000000
                    39     6      -0.757129      1.00000000
                    40     1      -2.658209      0.00000000
                    40     2      -2.254663      0.00000000
                    40     3      -2.151528      0.00000000
                    40     4      -1.304334      1.00000000
                    40     5      -0.883631      1.00000000
                    40     6      -0.757129      1.00000000
                    41     1      -2.531290      0.00000000
                    41     2      -2.511579      0.00000000
                    41     3      -2.270895      0.00000000
                    41     4      -0.895950      1.00000000
                    41     5      -0.129713      1.00000000
                    41     6       0.083513      1.00000000
                    42     1      -2.640556      0.00000000
                    42     2      -2.462333      0.00000000
                    42     3      -2.296953      0.00000000
                    42     4      -0.782812      1.00000000
                    42     5       0.102316      1.00000000
                    42     6       0.286250      1.00000000
                    43     1      -2.659137      0.00000000
                    43     2      -2.382736      0.00000000
                    43     3      -2.174589      0.00000000
                    43     4      -0.501616      1.00000000
                    43     5       0.035400      1.00000000
                    43     6       0.165827      1.00000000
                    44     1      -2.597254      0.00000000
                    44     2      -2.320060      0.00000000
                    44     3      -2.028018      0.00000000
                    44     4      -0.221642      1.00000000
                    44     5      -0.101536      1.00000000
                    44     6      -0.072308      1.00000000
                    45     1      -2.659137      0.00000000
                    45     2      -2.382736      0.00000000
                    45     3      -2.174589      0.00000000
                    45     4      -0.501616      1.00000000
                    45     5       0.035400      1.00000000
                    45     6       0.165827      1.00000000
                    46     1      -2.640556      0.00000000
                    46     2      -2.462333      0.00000000
                    46     3      -2.296953      0.00000000
                    46     4      -0.782812      1.00000000
                    46     5       0.102316      1.00000000
                    46     6       0.286250      1.00000000
                    47     1      -2.531290      0.00000000
                    47     2      -2.511579      0.00000000
                    47     3      -2.270895      0.00000000
                    47     4      -0.895950      1.00000000
                    47     5      -0.129713      1.00000000
                    47     6       0.083513      1.00000000
                    48     1      -2.566454      0.00000000
                    48     2      -2.430637      0.00000000
                    48     3      -2.167573      0.00000000
                    48     4      -0.835225      1.00000000
                    48     5      -0.607357      1.00000000
                    48     6      -0.332179      1.00000000
                    49     1      -2.556002      0.00000000
                    49     2      -2.232261      0.00000000
                    49     3      -2.226246      0.00000000
                    49     4      -0.938371      1.00000000
                    49     5      -0.679223      1.00000000
                    49     6      -0.642882      1.00000000
                    50     1      -2.566454      0.00000000
                    50     2      -2.430637      0.00000000
                    50     3      -2.167573      0.00000000
                    50     4      -0.835225      1.00000000
                    50     5      -0.607357      1.00000000
                    50     6      -0.332179      1.00000000
                    51     1      -2.579319      0.00000000
                    51     2      -2.485150      0.00000000
                    51     3      -2.326120      0.00000000
                    51     4      -0.881469      1.00000000
                    51     5       0.066929      1.00000000
                    51     6       0.266173      1.00000000
                    52     1      -2.605174      0.00000000
                    52     2      -2.486224      0.00000000
                    52     3      -2.242640      0.00000000
                    52     4      -0.787644      1.00000000
                    52     5      -0.094031      1.00000000
                    52     6       0.106875      1.00000000
                    53     1      -2.567459      0.00000000
                    53     2      -2.332019      0.00000000
                    53     3      -2.150783      0.00000000
                    53     4      -0.577827      1.00000000
                    53     5      -0.406110      1.00000000
                    53     6      -0.249428      1.00000000
                    54     1      -2.567459      0.00000000
                    54     2      -2.332019      0.00000000
                    54     3      -2.150783      0.00000000
                    54     4      -0.577827      1.00000000
                    54     5      -0.406110      1.00000000
                    54     6      -0.249428      1.00000000
                    55     1      -2.605174      0.00000000
                    55     2      -2.486224      0.00000000
                    55     3      -2.242640      0.00000000
                    55     4      -0.787644      1.00000000
                    55     5      -0.094031      1.00000000
                    55     6       0.106875      1.00000000
                    56     1      -2.579319      0.00000000
                    56     2      -2.485150      0.00000000
                    56     3      -2.326120      0.00000000
                    56     4      -0.881469      1.00000000
                    56     5       0.066929      1.00000000
                    56     6       0.266173      1.00000000
                    57     1      -2.605174      0.00000000
                    57     2      -2.486224      0.00000000
                    57     3      -2.242640      0.00000000
                    57     4      -0.787644      1.00000000
                    57     5      -0.094031      1.00000000
                    57     6       0.106875      1.00000000
                    58     1      -2.567459      0.00000000
                    58     2      -2.332019      0.00000000
                    58     3      -2.150783      0.00000000
                    58     4      -0.577827      1.00000000
                    58     5      -0.406110      1.00000000
                    58     6      -0.249428      1.00000000
                    59     1      -2.567459      0.00000000
                    59     2      -2.332019      0.00000000
                    59     3      -2.150783      0.00000000
                    59     4      -0.577827      1.00000000
                    59     5      -0.406110      1.00000000
                    59     6      -0.249428      1.00000000
                    60     1      -2.605174      0.00000000
                    60     2      -2.486224      0.00000000
                    60     3      -2.242640      0.00000000
                    60     4      -0.787644      1.00000000
                    60     5      -0.094031      1.00000000
                    60     6       0.106875      1.00000000
                    61     1      -2.531290      0.00000000
                    61     2      -2.511579      0.00000000
                    61     3      -2.270895      0.00000000
                    61     4      -0.895950      1.00000000
                    61     5      -0.129713      1.00000000
                    61     6       0.083513      1.00000000
                    62     1      -2.566454      0.00000000
                    62     2      -2.430637      0.00000000
                    62     3      -2.167573      0.00000000
                    62     4      -0.835225      1.00000000
                    62     5      -0.607357      1.00000000
                    62     6      -0.332179      1.00000000
                    63     1      -2.556002      0.00000000
                    63     2      -2.232261      0.00000000
                    63     3      -2.226246      0.00000000
                    63     4      -0.938371      1.00000000
                    63     5      -0.679223      1.00000000
                    63     6      -0.642882      1.00000000
                    64     1      -2.566454      0.00000000
                    64     2      -2.430637      0.00000000
                    64     3      -2.167573      0.00000000
                    64     4      -0.835225      1.00000000
                    64     5      -0.607357      1.00000000
                    64     6      -0.332179      1.00000000
                    65     1      -2.531290      0.00000000
                    65     2      -2.511579      0.00000000
                    65     3      -2.270895      0.00000000
                    65     4      -0.895950      1.00000000
                    65     5      -0.129713      1.00000000
                    65     6       0.083513      1.00000000
                    66     1      -2.640556      0.00000000
                    66     2      -2.462333      0.00000000
                    66     3      -2.296953      0.00000000
                    66     4      -0.782812      1.00000000
                    66     5       0.102316      1.00000000
                    66     6       0.286250      1.00000000
                    67     1      -2.659137      0.00000000
                    67     2      -2.382736      0.00000000
                    67     3      -2.174589      0.00000000
                    67     4      -0.501616      1.00000000
                    67     5       0.035400      1.00000000
                    67     6       0.165827      1.00000000
                    68     1      -2.597254      0.00000000
                    68     2      -2.320060      0.00000000
                    68     3      -2.028018      0.00000000
                    68     4      -0.221642      1.00000000
                    68     5      -0.101536      1.00000000
                    68     6      -0.072308      1.00000000
                    69     1      -2.659137      0.00000000
                    69     2      -2.382736      0.00000000
                    69     3      -2.174589      0.00000000
                    69     4      -0.501616      1.00000000
                    69     5       0.035400      1.00000000
                    69     6       0.165827      1.00000000
                    70     1      -2.640556      0.00000000
                    70     2      -2.462333      0.00000000
                    70     3      -2.296953      0.00000000
                    70     4      -0.782812      1.00000000
                    70     5       0.102316      1.00000000
                    70     6       0.286250      1.00000000
                    71     1      -2.574977      0.00000000
                    71     2      -2.397765      0.00000000
                    71     3      -2.171435      0.00000000
                    71     4      -0.934089      1.00000000
                    71     5      -0.663516      1.00000000
                    71     6      -0.366041      1.00000000
                    72     1      -2.658209      0.00000000
                    72     2      -2.254663      0.00000000
                    72     3      -2.151528      0.00000000
                    72     4      -1.304334      1.00000000
                    72     5      -0.883631      1.00000000
                    72     6      -0.757129      1.00000000
                    73     1      -2.658209      0.00000000
                    73     2      -2.254663      0.00000000
                    73     3      -2.151528      0.00000000
                    73     4      -1.304334      1.00000000
                    73     5      -0.883631      1.00000000
                    73     6      -0.757129      1.00000000
                    74     1      -2.574977      0.00000000
                    74     2      -2.397765      0.00000000
                    74     3      -2.171435      0.00000000
                    74     4      -0.934089      1.00000000
                    74     5      -0.663516      1.00000000
                    74     6      -0.366041      1.00000000
                    75     1      -2.569944      0.00000000
                    75     2      -2.461015      0.00000000
                    75     3      -2.262227      0.00000000
                    75     4      -0.818070      1.00000000
                    75     5      -0.092208      1.00000000
                    75     6       0.101781      1.00000000
                    76     1      -2.651983      0.00000000
                    76     2      -2.392298      0.00000000
                    76     3      -2.220628      0.00000000
                    76     4      -0.490295      1.00000000
                    76     5       0.214095      1.00000000
                    76     6       0.339617      1.00000000
                    77     1      -2.645539      0.00000000
                    77     2      -2.348907      0.00000000
                    77     3      -1.991671      0.00000000
                    77     4      -0.092461      1.00000000
                    77     5       0.247130      1.00000000
                    77     6       0.262254      1.00000000
                    78     1      -2.645539      0.00000000
                    78     2      -2.348907      0.00000000
                    78     3      -1.991671      0.00000000
                    78     4      -0.092461      1.00000000
                    78     5       0.247130      1.00000000
                    78     6       0.262254      1.00000000
                    79     1      -2.651983      0.00000000
                    79     2      -2.392298      0.00000000
                    79     3      -2.220628      0.00000000
                    79     4      -0.490295      1.00000000
                    79     5       0.214095      1.00000000
                    79     6       0.339617      1.00000000
                    80     1      -2.569944      0.00000000
                    80     2      -2.461015      0.00000000
                    80     3      -2.262227      0.00000000
                    80     4      -0.818070      1.00000000
                    80     5      -0.092208      1.00000000
                    80     6       0.101781      1.00000000
                    81     1      -2.551199      0.00000000
                    81     2      -2.217386      0.00000000
                    81     3      -2.118108      0.00000000
                    81     4      -1.415202      1.00000000
                    81     5      -0.964190      1.00000000
                    81     6      -0.804608      1.00000000
                    82     1      -2.368319      0.01140290
                    82     2      -2.153335      0.00391723
                    82     3      -2.106495      0.00000000
                    82     4      -1.935715      0.98467987
                    82     5      -0.954268      1.00000000
                    82     6      -0.940850      1.00000000
                    83     1      -2.551199      0.00000000
                    83     2      -2.217386      0.00000000
                    83     3      -2.118108      0.00000000
                    83     4      -1.415202      1.00000000
                    83     5      -0.964190      1.00000000
                    83     6      -0.804608      1.00000000
                    84     1      -2.537905      0.00000000
                    84     2      -2.377014      0.00000000
                    84     3      -2.172037      0.00000000
                    84     4      -0.882168      1.00000000
                    84     5      -0.610164      1.00000000
                    84     6      -0.345050      1.00000000
                    85     1      -2.537567      0.00000000
                    85     2      -2.374926      0.00000000
                    85     3      -2.215999      0.00000000
                    85     4      -0.538387      1.00000000
                    85     5       0.034046      1.00000000
                    85     6       0.157566      1.00000000
                    86     1      -2.563328      0.00000000
                    86     2      -2.345182      0.00000000
                    86     3      -2.044486      0.00000000
                    86     4      -0.067132      1.00000000
                    86     5       0.404139      1.00000000
                    86     6       0.410621      1.00000000
                    87     1      -2.569732      0.00000000
                    87     2      -2.347944      0.00000000
                    87     3      -1.865082      0.00000000
                    87     4       0.255803      1.00000000
                    87     5       0.351702      1.00000000
                    87     6       0.509713      1.00000000
                    88     1      -2.563328      0.00000000
                    88     2      -2.345182      0.00000000
                    88     3      -2.044486      0.00000000
                    88     4      -0.067132      1.00000000
                    88     5       0.404139      1.00000000
                    88     6       0.410621      1.00000000
                    89     1      -2.537567      0.00000000
                    89     2      -2.374926      0.00000000
                    89     3      -2.215999      0.00000000
                    89     4      -0.538387      1.00000000
                    89     5       0.034046      1.00000000
                    89     6       0.157566      1.00000000
                    90     1      -2.537905      0.00000000
                    90     2      -2.377014      0.00000000
                    90     3      -2.172037      0.00000000
                    90     4      -0.882168      1.00000000
                    90     5      -0.610164      1.00000000
                    90     6      -0.345050      1.00000000
                    91     1      -2.225055      0.95776410
                    91     2      -2.181877      0.00000000
                    91     3      -2.116159      0.00000000
                    91     4      -2.048063      0.04223590
                    91     5      -0.996422      1.00000000
                    91     6      -0.985266      1.00000000
                    92     1      -2.225055      0.95776410
                    92     2      -2.181877      0.00000000
                    92     3      -2.116159      0.00000000
                    92     4      -2.048063      0.04223590
                    92     5      -0.996422      1.00000000
                    92     6      -0.985266      1.00000000
                    93     1      -2.646330      0.00000000
                    93     2      -2.190631      0.00000000
                    93     3      -2.108069      0.00000000
                    93     4      -1.298227      1.00000000
                    93     5      -0.947660      1.00000000
                    93     6      -0.783841      1.00000000
                    94     1      -2.500783      0.00000000
                    94     2      -2.268413      0.00000000
                    94     3      -2.165363      0.00000000
                    94     4      -0.630381      1.00000000
                    94     5      -0.414088      1.00000000
                    94     6      -0.275885      1.00000000
                    95     1      -2.508138      0.00000000
                    95     2      -2.283823      0.00000000
                    95     3      -2.103859      0.00000000
                    95     4      -0.108498      1.00000000
                    95     5       0.232076      1.00000000
                    95     6       0.259685      1.00000000
                    96     1      -2.521781      0.00000000
                    96     2      -2.283954      0.00000000
                    96     3      -1.870761      0.00000000
                    96     4       0.318834      1.00000000
                    96     5       0.472702      1.00000000
                    96     6       0.624294      1.00000000
                    97     1      -2.521781      0.00000000
                    97     2      -2.283954      0.00000000
                    97     3      -1.870761      0.00000000
                    97     4       0.318834      1.00000000
                    97     5       0.472702      1.00000000
                    97     6       0.624294      1.00000000
                    98     1      -2.508138      0.00000000
                    98     2      -2.283823      0.00000000
                    98     3      -2.103859      0.00000000
                    98     4      -0.108498      1.00000000
                    98     5       0.232076      1.00000000
                    98     6       0.259685      1.00000000
                    99     1      -2.500783      0.00000000
                    99     2      -2.268413      0.00000000
                    99     3      -2.165363      0.00000000
                    99     4      -0.630381      1.00000000
                    99     5      -0.414088      1.00000000
                    99     6      -0.275885      1.00000000
                   100     1      -2.646330      0.00000000
                   100     2      -2.190631      0.00000000
                   100     3      -2.108069      0.00000000
                   100     4      -1.298227      1.00000000
                   100     5      -0.947660      1.00000000
                   100     6      -0.783841      1.00000000
                   101     1      -2.225055      0.95776410
                   101     2      -2.181877      0.00000000
                   101     3      -2.116159      0.00000000
                   101     4      -2.048063      0.04223590
                   101     5      -0.996422      1.00000000
                   101     6      -0.985266      1.00000000
                   102     1      -2.646330      0.00000000
                   102     2      -2.190631      0.00000000
                   102     3      -2.108069      0.00000000
                   102     4      -1.298227      1.00000000
                   102     5      -0.947660      1.00000000
                   102     6      -0.783841      1.00000000
                   103     1      -2.500783      0.00000000
                   103     2      -2.268413      0.00000000
                   103     3      -2.165363      0.00000000
                   103     4      -0.630381      1.00000000
                   103     5      -0.414088      1.00000000
                   103     6      -0.275885      1.00000000
                   104     1      -2.508138      0.00000000
                   104     2      -2.283823      0.00000000
                   104     3      -2.103859      0.00000000
                   104     4      -0.108498      1.00000000
                   104     5       0.232076      1.00000000
                   104     6       0.259685      1.00000000
                   105     1      -2.521781      0.00000000
                   105     2      -2.283954      0.00000000
                   105     3      -1.870761      0.00000000
                   105     4       0.318834      1.00000000
                   105     5       0.472702      1.00000000
                   105     6       0.624294      1.00000000
                   106     1      -2.521781      0.00000000
                   106     2      -2.283954      0.00000000
                   106     3      -1.870761      0.00000000
                   106     4       0.318834      1.00000000
                   106     5       0.472702      1.00000000
                   106     6       0.624294      1.00000000
                   107     1      -2.508138      0.00000000
                   107     2      -2.283823      0.00000000
                   107     3      -2.103859      0.00000000
                   107     4      -0.108498      1.00000000
                   107     5       0.232076      1.00000000
                   107     6       0.259685      1.00000000
                   108     1      -2.500783      0.00000000
                   108     2      -2.268413      0.00000000
                   108     3      -2.165363      0.00000000
                   108     4      -0.630381      1.00000000
                   108     5      -0.414088      1.00000000
                   108     6      -0.275885      1.00000000
                   109     1      -2.646330      0.00000000
                   109     2      -2.190631      0.00000000
                   109     3      -2.108069      0.00000000
                   109     4      -1.298227      1.00000000
                   109     5      -0.947660      1.00000000
                   109     6      -0.783841      1.00000000
                   110     1      -2.225055      0.95776410
                   110     2      -2.181877      0.00000000
                   110     3      -2.116159      0.00000000
                   110     4      -2.048063      0.04223590
                   110     5      -0.996422      1.00000000
                   110     6      -0.985266      1.00000000
                   111     1      -2.368319      0.01140290
                   111     2      -2.153335      0.00391723
                   111     3      -2.106495      0.00000000
                   111     4      -1.935715      0.98467987
                   111     5      -0.954268      1.00000000
                   111     6      -0.940850      1.00000000
                   112     1      -2.570422      0.00000000
                   112     2      -2.190161      0.00000000
                   112     3      -2.152883      0.00000000
                   112     4      -0.932324      1.00000000
                   112     5      -0.733237      1.00000000
                   112     6      -0.676620      1.00000000
                   113     1      -2.522907      0.00000000
                   113     2      -2.189162      0.00000000
                   113     3      -2.167325      0.00000000
                   113     4      -0.202522      1.00000000
                   113     5      -0.174602      1.00000000
                   113     6      -0.072276      1.00000000
                   114     1      -2.557170      0.00000000
                   114     2      -2.183547      0.00000000
                   114     3      -2.000005      0.00000000
                   114     4       0.279756      1.00000000
                   114     5       0.312140      1.00000000
                   114     6       0.516083      1.00000000
                   115     1      -2.429004      0.00000000
                   115     2      -2.180260      0.00000000
                   115     3      -1.839062      0.00000000
                   115     4       0.462990      1.00000000
                   115     5       0.510511      1.00000000
                   115     6       0.732208      1.00000000
                   116     1      -2.557170      0.00000000
                   116     2      -2.183547      0.00000000
                   116     3      -2.000005      0.00000000
                   116     4       0.279756      1.00000000
                   116     5       0.312140      1.00000000
                   116     6       0.516083      1.00000000
                   117     1      -2.522907      0.00000000
                   117     2      -2.189162      0.00000000
                   117     3      -2.167325      0.00000000
                   117     4      -0.202522      1.00000000
                   117     5      -0.174602      1.00000000
                   117     6      -0.072276      1.00000000
                   118     1      -2.570422      0.00000000
                   118     2      -2.190161      0.00000000
                   118     3      -2.152883      0.00000000
                   118     4      -0.932324      1.00000000
                   118     5      -0.733237      1.00000000
                   118     6      -0.676620      1.00000000
                   119     1      -2.368319      0.01140290
                   119     2      -2.153335      0.00391723
                   119     3      -2.106495      0.00000000
                   119     4      -1.935715      0.98467987
                   119     5      -0.954268      1.00000000
                   119     6      -0.940850      1.00000000
                   120     1      -2.798910      1.00000000
                   120     2      -2.208179      0.00000000
                   120     3      -2.017208      0.00000000
                   120     4      -2.017208      0.00000000
                   120     5      -0.961466      1.00000000
                   120     6      -0.961466      1.00000000
                   121     1      -2.658209      0.00000000
                   121     2      -2.254663      0.00000000
                   121     3      -2.151528      0.00000000
                   121     4      -1.304334      1.00000000
                   121     5      -0.883631      1.00000000
                   121     6      -0.757129      1.00000000
                   122     1      -2.533869      0.00000000
                   122     2      -2.279211      0.00000000
                   122     3      -2.169533      0.00000000
                   122     4      -0.608424      1.00000000
                   122     5      -0.407966      1.00000000
                   122     6      -0.268340      1.00000000
                   123     1      -2.573970      0.00000000
                   123     2      -2.207461      0.00000000
                   123     3      -2.137718      0.00000000
                   123     4      -0.104319      1.00000000
                   123     5       0.228585      1.00000000
                   123     6       0.271592      1.00000000
                   124     1      -2.521284      0.00000000
                   124     2      -2.173898      0.00000000
                   124     3      -1.932577      0.00000000
                   124     4       0.320942      1.00000000
                   124     5       0.464835      1.00000000
                   124     6       0.636578      1.00000000
                   125     1      -2.521284      0.00000000
                   125     2      -2.173898      0.00000000
                   125     3      -1.932577      0.00000000
                   125     4       0.320942      1.00000000
                   125     5       0.464835      1.00000000
                   125     6       0.636578      1.00000000
                   126     1      -2.573970      0.00000000
                   126     2      -2.207461      0.00000000
                   126     3      -2.137718      0.00000000
                   126     4      -0.104319      1.00000000
                   126     5       0.228585      1.00000000
                   126     6       0.271592      1.00000000
                   127     1      -2.533869      0.00000000
                   127     2      -2.279211      0.00000000
                   127     3      -2.169533      0.00000000
                   127     4      -0.608424      1.00000000
                   127     5      -0.407966      1.00000000
                   127     6      -0.268340      1.00000000
                   128     1      -2.658209      0.00000000
                   128     2      -2.254663      0.00000000
                   128     3      -2.151528      0.00000000
                   128     4      -1.304334      1.00000000
                   128     5      -0.883631      1.00000000
                   128     6      -0.757129      1.00000000
                   129     1      -2.299846      0.00000000
                   129     2      -2.224364      0.99206626
                   129     3      -2.178147      0.00000000
                   129     4      -2.102734      0.00793374
                   129     5      -0.917437      1.00000000
                   129     6      -0.917152      1.00000000
                   130     1      -2.299846      0.00000000
                   130     2      -2.224364      0.99206626
                   130     3      -2.178147      0.00000000
                   130     4      -2.102734      0.00793374
                   130     5      -0.917437      1.00000000
                   130     6      -0.917152      1.00000000
                   131     1      -2.566454      0.00000000
                   131     2      -2.430637      0.00000000
                   131     3      -2.167573      0.00000000
                   131     4      -0.835225      1.00000000
                   131     5      -0.607357      1.00000000
                   131     6      -0.332179      1.00000000
                   132     1      -2.619214      0.00000000
                   132     2      -2.355365      0.00000000
                   132     3      -2.200749      0.00000000
                   132     4      -0.523453      1.00000000
                   132     5       0.039492      1.00000000
                   132     6       0.159826      1.00000000
                   133     1      -2.652616      0.00000000
                   133     2      -2.242941      0.00000000
                   133     3      -2.101531      0.00000000
                   133     4      -0.068575      1.00000000
                   133     5       0.402804      1.00000000
                   133     6       0.417053      1.00000000
                   134     1      -2.574070      0.00000000
                   134     2      -2.213631      0.00000000
                   134     3      -1.947774      0.00000000
                   134     4       0.271351      1.00000000
                   134     5       0.326391      1.00000000
                   134     6       0.524100      1.00000000
                   135     1      -2.652616      0.00000000
                   135     2      -2.242941      0.00000000
                   135     3      -2.101531      0.00000000
                   135     4      -0.068575      1.00000000
                   135     5       0.402804      1.00000000
                   135     6       0.417053      1.00000000
                   136     1      -2.619214      0.00000000
                   136     2      -2.355365      0.00000000
                   136     3      -2.200749      0.00000000
                   136     4      -0.523453      1.00000000
                   136     5       0.039492      1.00000000
                   136     6       0.159826      1.00000000
                   137     1      -2.566454      0.00000000
                   137     2      -2.430637      0.00000000
                   137     3      -2.167573      0.00000000
                   137     4      -0.835225      1.00000000
                   137     5      -0.607357      1.00000000
                   137     6      -0.332179      1.00000000
                   138     1      -2.605811      0.00000000
                   138     2      -2.263856      0.00000000
                   138     3      -2.173739      0.00000000
                   138     4      -1.422846      1.00000000
                   138     5      -0.878166      1.00000000
                   138     6      -0.758868      1.00000000
                   139     1      -2.435459      0.00578509
                   139     2      -2.272382      0.00391139
                   139     3      -2.184831      0.00000000
                   139     4      -1.945634      0.99030353
                   139     5      -0.881158      1.00000000
                   139     6      -0.840232      1.00000000
                   140     1      -2.605811      0.00000000
                   140     2      -2.263856      0.00000000
                   140     3      -2.173739      0.00000000
                   140     4      -1.422846      1.00000000
                   140     5      -0.878166      1.00000000
                   140     6      -0.758868      1.00000000
                   141     1      -2.605174      0.00000000
                   141     2      -2.486224      0.00000000
                   141     3      -2.242640      0.00000000
                   141     4      -0.787644      1.00000000
                   141     5      -0.094031      1.00000000
                   141     6       0.106875      1.00000000
                   142     1      -2.696918      0.00000000
                   142     2      -2.372390      0.00000000
                   142     3      -2.221750      0.00000000
                   142     4      -0.491805      1.00000000
                   142     5       0.219070      1.00000000
                   142     6       0.336523      1.00000000
                   143     1      -2.631889      0.00000000
                   143     2      -2.256986      0.00000000
                   143     3      -2.071239      0.00000000
                   143     4      -0.098425      1.00000000
                   143     5       0.233846      1.00000000
                   143     6       0.273972      1.00000000
                   144     1      -2.631889      0.00000000
                   144     2      -2.256986      0.00000000
                   144     3      -2.071239      0.00000000
                   144     4      -0.098425      1.00000000
                   144     5       0.233846      1.00000000
                   144     6       0.273972      1.00000000
                   145     1      -2.696918      0.00000000
                   145     2      -2.372390      0.00000000
                   145     3      -2.221750      0.00000000
                   145     4      -0.491805      1.00000000
                   145     5       0.219070      1.00000000
                   145     6       0.336523      1.00000000
                   146     1      -2.605174      0.00000000
                   146     2      -2.486224      0.00000000
                   146     3      -2.242640      0.00000000
                   146     4      -0.787644      1.00000000
                   146     5      -0.094031      1.00000000
                   146     6       0.106875      1.00000000
                   147     1      -2.636434      0.00000000
                   147     2      -2.431433      0.00000000
                   147     3      -2.161863      0.00000000
                   147     4      -0.874660      1.00000000
                   147     5      -0.661926      1.00000000
                   147     6      -0.348936      1.00000000
                   148     1      -2.668091      0.00000000
                   148     2      -2.339598      0.00000000
                   148     3      -2.215406      0.00000000
                   148     4      -1.312581      1.00000000
                   148     5      -0.811739      1.00000000
                   148     6      -0.691419      1.00000000
                   149     1      -2.668091      0.00000000
                   149     2      -2.339598      0.00000000
                   149     3      -2.215406      0.00000000
                   149     4      -1.312581      1.00000000
[...]
                   949     5      -0.407966      1.00000000
                   949     6      -0.268340      1.00000000
                   950     1      -2.533869      0.00000000
                   950     2      -2.279211      0.00000000
                   950     3      -2.169533      0.00000000
                   950     4      -0.608424      1.00000000
                   950     5      -0.407966      1.00000000
                   950     6      -0.268340      1.00000000
                   951     1      -2.640556      0.00000000
                   951     2      -2.462333      0.00000000
                   951     3      -2.296953      0.00000000
                   951     4      -0.782812      1.00000000
                   951     5       0.102316      1.00000000
                   951     6       0.286250      1.00000000
                   952     1      -2.573226      0.00000000
                   952     2      -2.547216      0.00000000
                   952     3      -2.244956      0.00000000
                   952     4      -0.862700      1.00000000
                   952     5      -0.133015      1.00000000
                   952     6       0.090659      1.00000000
                   953     1      -2.608538      0.00000000
                   953     2      -2.490280      0.00000000
                   953     3      -2.162293      0.00000000
                   953     4      -0.778774      1.00000000
                   953     5      -0.611705      1.00000000
                   953     6      -0.310332      1.00000000
                   954     1      -2.534784      0.00000000
                   954     2      -2.317052      0.00000000
                   954     3      -2.266062      0.00000000
                   954     4      -0.946537      1.00000000
                   954     5      -0.684377      1.00000000
                   954     6      -0.535807      1.00000000
                   955     1      -2.608538      0.00000000
                   955     2      -2.490280      0.00000000
                   955     3      -2.162293      0.00000000
                   955     4      -0.778774      1.00000000
                   955     5      -0.611705      1.00000000
                   955     6      -0.310332      1.00000000
                   956     1      -2.573226      0.00000000
                   956     2      -2.547216      0.00000000
                   956     3      -2.244956      0.00000000
                   956     4      -0.862700      1.00000000
                   956     5      -0.133015      1.00000000
                   956     6       0.090659      1.00000000
                   957     1      -2.640556      0.00000000
                   957     2      -2.462333      0.00000000
                   957     3      -2.296953      0.00000000
                   957     4      -0.782812      1.00000000
                   957     5       0.102316      1.00000000
                   957     6       0.286250      1.00000000
                   958     1      -2.619214      0.00000000
                   958     2      -2.355365      0.00000000
                   958     3      -2.200749      0.00000000
                   958     4      -0.523453      1.00000000
                   958     5       0.039492      1.00000000
                   958     6       0.159826      1.00000000
                   959     1      -2.567889      0.00000000
                   959     2      -2.238640      0.00000000
                   959     3      -2.105775      0.00000000
                   959     4      -0.198829      1.00000000
                   959     5      -0.157732      1.00000000
                   959     6      -0.062893      1.00000000
                   960     1      -2.619214      0.00000000
                   960     2      -2.355365      0.00000000
                   960     3      -2.200749      0.00000000
                   960     4      -0.523453      1.00000000
                   960     5       0.039492      1.00000000
                   960     6       0.159826      1.00000000
                   961     1      -2.605174      0.00000000
                   961     2      -2.486224      0.00000000
                   961     3      -2.242640      0.00000000
                   961     4      -0.787644      1.00000000
                   961     5      -0.094031      1.00000000
                   961     6       0.106875      1.00000000
                   962     1      -2.636434      0.00000000
                   962     2      -2.431433      0.00000000
                   962     3      -2.161863      0.00000000
                   962     4      -0.874660      1.00000000
                   962     5      -0.661926      1.00000000
                   962     6      -0.348936      1.00000000
                   963     1      -2.668091      0.00000000
                   963     2      -2.339598      0.00000000
                   963     3      -2.215406      0.00000000
                   963     4      -1.312581      1.00000000
                   963     5      -0.811739      1.00000000
                   963     6      -0.691419      1.00000000
                   964     1      -2.668091      0.00000000
                   964     2      -2.339598      0.00000000
                   964     3      -2.215406      0.00000000
                   964     4      -1.312581      1.00000000
                   964     5      -0.811739      1.00000000
                   964     6      -0.691419      1.00000000
                   965     1      -2.636434      0.00000000
                   965     2      -2.431433      0.00000000
                   965     3      -2.161863      0.00000000
                   965     4      -0.874660      1.00000000
                   965     5      -0.661926      1.00000000
                   965     6      -0.348936      1.00000000
                   966     1      -2.605174      0.00000000
                   966     2      -2.486224      0.00000000
                   966     3      -2.242640      0.00000000
                   966     4      -0.787644      1.00000000
                   966     5      -0.094031      1.00000000
                   966     6       0.106875      1.00000000
                   967     1      -2.696918      0.00000000
                   967     2      -2.372390      0.00000000
                   967     3      -2.221750      0.00000000
                   967     4      -0.491805      1.00000000
                   967     5       0.219070      1.00000000
                   967     6       0.336523      1.00000000
                   968     1      -2.631889      0.00000000
                   968     2      -2.256986      0.00000000
                   968     3      -2.071239      0.00000000
                   968     4      -0.098425      1.00000000
                   968     5       0.233846      1.00000000
                   968     6       0.273972      1.00000000
                   969     1      -2.631889      0.00000000
                   969     2      -2.256986      0.00000000
                   969     3      -2.071239      0.00000000
                   969     4      -0.098425      1.00000000
                   969     5       0.233846      1.00000000
                   969     6       0.273972      1.00000000
                   970     1      -2.696918      0.00000000
                   970     2      -2.372390      0.00000000
                   970     3      -2.221750      0.00000000
                   970     4      -0.491805      1.00000000
                   970     5       0.219070      1.00000000
                   970     6       0.336523      1.00000000
                   971     1      -2.566454      0.00000000
                   971     2      -2.430637      0.00000000
                   971     3      -2.167573      0.00000000
                   971     4      -0.835225      1.00000000
                   971     5      -0.607357      1.00000000
                   971     6      -0.332179      1.00000000
                   972     1      -2.605811      0.00000000
                   972     2      -2.263856      0.00000000
                   972     3      -2.173739      0.00000000
                   972     4      -1.422846      1.00000000
                   972     5      -0.878166      1.00000000
                   972     6      -0.758868      1.00000000
                   973     1      -2.435459      0.00578509
                   973     2      -2.272382      0.00391139
                   973     3      -2.184831      0.00000000
                   973     4      -1.945634      0.99030353
                   973     5      -0.881158      1.00000000
                   973     6      -0.840232      1.00000000
                   974     1      -2.605811      0.00000000
                   974     2      -2.263856      0.00000000
                   974     3      -2.173739      0.00000000
                   974     4      -1.422846      1.00000000
                   974     5      -0.878166      1.00000000
                   974     6      -0.758868      1.00000000
                   975     1      -2.566454      0.00000000
                   975     2      -2.430637      0.00000000
                   975     3      -2.167573      0.00000000
                   975     4      -0.835225      1.00000000
                   975     5      -0.607357      1.00000000
                   975     6      -0.332179      1.00000000
                   976     1      -2.619214      0.00000000
                   976     2      -2.355365      0.00000000
                   976     3      -2.200749      0.00000000
                   976     4      -0.523453      1.00000000
                   976     5       0.039492      1.00000000
                   976     6       0.159826      1.00000000
                   977     1      -2.652616      0.00000000
                   977     2      -2.242941      0.00000000
                   977     3      -2.101531      0.00000000
                   977     4      -0.068575      1.00000000
                   977     5       0.402804      1.00000000
                   977     6       0.417053      1.00000000
                   978     1      -2.574070      0.00000000
                   978     2      -2.213631      0.00000000
                   978     3      -1.947774      0.00000000
                   978     4       0.271351      1.00000000
                   978     5       0.326391      1.00000000
                   978     6       0.524100      1.00000000
                   979     1      -2.652616      0.00000000
                   979     2      -2.242941      0.00000000
                   979     3      -2.101531      0.00000000
                   979     4      -0.068575      1.00000000
                   979     5       0.402804      1.00000000
                   979     6       0.417053      1.00000000
                   980     1      -2.619214      0.00000000
                   980     2      -2.355365      0.00000000
                   980     3      -2.200749      0.00000000
                   980     4      -0.523453      1.00000000
                   980     5       0.039492      1.00000000
                   980     6       0.159826      1.00000000
                   981     1      -2.658209      0.00000000
                   981     2      -2.254663      0.00000000
                   981     3      -2.151528      0.00000000
                   981     4      -1.304334      1.00000000
                   981     5      -0.883631      1.00000000
                   981     6      -0.757129      1.00000000
                   982     1      -2.299846      0.00000000
                   982     2      -2.224364      0.99206626
                   982     3      -2.178147      0.00000000
                   982     4      -2.102734      0.00793374
                   982     5      -0.917437      1.00000000
                   982     6      -0.917152      1.00000000
                   983     1      -2.299846      0.00000000
                   983     2      -2.224364      0.99206626
                   983     3      -2.178147      0.00000000
                   983     4      -2.102734      0.00793374
                   983     5      -0.917437      1.00000000
                   983     6      -0.917152      1.00000000
                   984     1      -2.658209      0.00000000
                   984     2      -2.254663      0.00000000
                   984     3      -2.151528      0.00000000
                   984     4      -1.304334      1.00000000
                   984     5      -0.883631      1.00000000
                   984     6      -0.757129      1.00000000
                   985     1      -2.533869      0.00000000
                   985     2      -2.279211      0.00000000
                   985     3      -2.169533      0.00000000
                   985     4      -0.608424      1.00000000
                   985     5      -0.407966      1.00000000
                   985     6      -0.268340      1.00000000
                   986     1      -2.573970      0.00000000
                   986     2      -2.207461      0.00000000
                   986     3      -2.137718      0.00000000
                   986     4      -0.104319      1.00000000
                   986     5       0.228585      1.00000000
                   986     6       0.271592      1.00000000
                   987     1      -2.521284      0.00000000
                   987     2      -2.173898      0.00000000
                   987     3      -1.932577      0.00000000
                   987     4       0.320942      1.00000000
                   987     5       0.464835      1.00000000
                   987     6       0.636578      1.00000000
                   988     1      -2.521284      0.00000000
                   988     2      -2.173898      0.00000000
                   988     3      -1.932577      0.00000000
                   988     4       0.320942      1.00000000
                   988     5       0.464835      1.00000000
                   988     6       0.636578      1.00000000
                   989     1      -2.573970      0.00000000
                   989     2      -2.207461      0.00000000
                   989     3      -2.137718      0.00000000
                   989     4      -0.104319      1.00000000
                   989     5       0.228585      1.00000000
                   989     6       0.271592      1.00000000
                   990     1      -2.533869      0.00000000
                   990     2      -2.279211      0.00000000
                   990     3      -2.169533      0.00000000
                   990     4      -0.608424      1.00000000
                   990     5      -0.407966      1.00000000
                   990     6      -0.268340      1.00000000
                   991     1      -2.368319      0.01140290
                   991     2      -2.153335      0.00391723
                   991     3      -2.106495      0.00000000
                   991     4      -1.935715      0.98467987
                   991     5      -0.954268      1.00000000
                   991     6      -0.940850      1.00000000
                   992     1      -2.798910      1.00000000
                   992     2      -2.208179      0.00000000
                   992     3      -2.017208      0.00000000
                   992     4      -2.017208      0.00000000
                   992     5      -0.961466      1.00000000
                   992     6      -0.961466      1.00000000
                   993     1      -2.368319      0.01140290
                   993     2      -2.153335      0.00391723
                   993     3      -2.106495      0.00000000
                   993     4      -1.935715      0.98467987
                   993     5      -0.954268      1.00000000
                   993     6      -0.940850      1.00000000
                   994     1      -2.570422      0.00000000
                   994     2      -2.190161      0.00000000
                   994     3      -2.152883      0.00000000
                   994     4      -0.932324      1.00000000
                   994     5      -0.733237      1.00000000
                   994     6      -0.676620      1.00000000
                   995     1      -2.522907      0.00000000
                   995     2      -2.189162      0.00000000
                   995     3      -2.167325      0.00000000
                   995     4      -0.202522      1.00000000
                   995     5      -0.174602      1.00000000
                   995     6      -0.072276      1.00000000
                   996     1      -2.557170      0.00000000
                   996     2      -2.183547      0.00000000
                   996     3      -2.000005      0.00000000
                   996     4       0.279756      1.00000000
                   996     5       0.312140      1.00000000
                   996     6       0.516083      1.00000000
                   997     1      -2.429004      0.00000000
                   997     2      -2.180260      0.00000000
                   997     3      -1.839062      0.00000000
                   997     4       0.462990      1.00000000
                   997     5       0.510511      1.00000000
                   997     6       0.732208      1.00000000
                   998     1      -2.557170      0.00000000
                   998     2      -2.183547      0.00000000
                   998     3      -2.000005      0.00000000
                   998     4       0.279756      1.00000000
                   998     5       0.312140      1.00000000
                   998     6       0.516083      1.00000000
                   999     1      -2.522907      0.00000000
                   999     2      -2.189162      0.00000000
                   999     3      -2.167325      0.00000000
                   999     4      -0.202522      1.00000000
                   999     5      -0.174602      1.00000000
                   999     6      -0.072276      1.00000000
                  1000     1      -2.570422      0.00000000
                  1000     2      -2.190161      0.00000000
                  1000     3      -2.152883      0.00000000
                  1000     4      -0.932324      1.00000000
                  1000     5      -0.733237      1.00000000
                  1000     6      -0.676620      1.00000000
 ------------------------------------------------------------------------------

 Time for wannierise            0.731 (sec)

 Writing checkpoint file w2w.chk... done

 *---------------------------------------------------------------------------*
 |                               PLOTTING                                    |
 *---------------------------------------------------------------------------*
 
 
 Calculating interpolated band-structure
 
 Time to calculate interpolated band structure       0.068 (sec)
 
 Time for plotting              2.531 (sec)
 Total Execution Time           4.781 (sec)

 *===========================================================================*
 |                             TIMING INFORMATION                            |
 *===========================================================================*
 |    Tag                                                Ncalls      Time (s)|
 |---------------------------------------------------------------------------|
 |kmesh: get                                        :         1         0.241|
 |overlap: read                                     :         1         0.236|
 |dis: main                                         :         1         0.972|
 |wann: main                                        :         1         0.731|
 |plot: main                                        :         1         2.531|
 *---------------------------------------------------------------------------*
 
 All done: wannier90 exiting
