 written on 28Mar2018 at 16:17:58 
           3
        1125
    4    2    2    2    2    2    2    2    2    2    2    2    4    2    4
    1    1    2    1    1    2    1    1    2    2    1    1    1    2    1
    1    1    2    1    1    2    2    1    1    2    1    1    2    1    1
    2    1    2    4    2    2    1    1    4    1    1    1    1    2    2
    1    1    1    1    1    2    1    1    1    1    1    2    1    1    1
    1    1    2    1    1    1    1    1    2    1    1    1    1    2    2
    1    1    1    1    2    1    1    1    1    2    1    1    1    2    2
    1    2    4    2    2    1    1    2    2    1    1    1    1    1    4
    1    1    1    1    1    1    1    2    1    1    1    1    1    1    1
    2    1    1    1    1    1    1    1    2    1    1    1    1    1    1
    1    2    1    1    1    1    1    1    1    2    1    1    1    1    1
    1    2    2    1    1    1    1    1    1    2    1    1    1    1    1
    2    2    1    1    1    2    2    1    2    4    2    2    2    1    1
    1    2    1    1    1    1    1    2    1    1    1    1    1    1    1
    4    1    1    1    1    1    1    1    1    1    2    1    1    1    1
    1    1    1    1    1    2    1    1    1    1    1    1    1    1    1
    2    1    1    1    1    1    1    1    1    1    2    1    1    1    1
    1    1    1    1    1    2    1    1    1    1    1    1    1    1    2
    2    1    1    1    1    1    1    1    2    2    1    1    1    1    1
    2    2    1    1    1    2    2    1    2    4    2    2    2    1    1
    1    2    1    1    1    1    1    2    1    1    1    1    1    1    1
    2    1    1    1    1    1    1    1    1    1    1    1    1    1    1
    1    1    1    1    1    1    1    1    1    1    1    1    1    1    1
    1    1    1    1    1    1    1    1    1    1    1    1    1    1    1
    1    1    1    1    1    2    1    1    1    1    1    1    1    1    1
    2    2    1    1    1    1    1    1    1    1    2    1    1    1    1
    1    1    2    1    1    1    1    2    1    1    2    2    2    2    1
    1    2    2    1    1    1    1    1    2    1    1    1    1    1    1
    1    2    1    1    1    1    1    1    1    1    1    1    1    1    1
    1    1    1    1    1    1    1    1    1    1    1    1    1    1    1
    1    1    1    1    1    1    1    1    1    1    1    2    1    1    1
    1    1    1    1    1    1    2    1    1    1    1    1    1    1    1
    1    1    1    1    1    1    1    1    1    1    1    2    2    1    1
    1    1    1    1    2    1    1    1    1    2    1    1    2    2    2
    2    1    1    2    1    1    1    1    2    2    1    1    1    1    1
    1    1    2    1    1    1    1    1    1    1    1    1    1    1    1
    1    1    1    1    1    1    1    1    1    1    1    1    1    1    1
    1    1    2    1    1    1    1    1    1    1    1    1    2    1    1
    1    1    1    1    1    1    1    1    1    1    1    1    1    1    1
    1    1    1    1    1    1    1    1    1    1    1    1    2    1    1
    1    1    1    1    1    2    2    1    1    1    1    2    1    1    2
    2    2    2    1    1    2    1    1    1    1    2    1    1    1    1
    1    1    2    2    1    1    1    1    1    1    1    1    1    1    1
    1    1    1    1    1    1    1    1    2    1    1    1    1    1    1
    1    1    1    2    1    1    1    1    1    1    1    1    1    1    1
    1    1    1    1    1    1    1    1    1    1    1    1    1    1    1
    1    1    1    1    1    1    1    1    1    1    1    1    1    2    1
    1    1    1    1    1    1    2    1    1    1    1    1    2    2    1
    1    2    2    2    2    1    1    2    1    1    1    1    2    1    1
    1    1    1    1    2    1    1    1    1    1    1    1    1    2    2
    1    1    1    1    1    1    1    1    1    2    1    1    1    1    1
    1    1    1    1    1    1    1    1    1    1    1    1    1    1    1
    1    1    1    1    1    1    1    1    1    1    1    1    1    1    1
    1    1    1    1    1    1    1    1    1    1    1    1    1    1    2
    1    1    1    1    1    1    1    2    1    1    1    1    1    2    1
    1    1    2    2    2    4    2    1    2    2    1    1    1    2    2
    1    1    1    1    1    2    2    1    1    1    1    1    1    1    2
    2    1    1    1    1    1    1    1    1    2    1    1    1    1    1
    1    1    1    1    2    1    1    1    1    1    1    1    1    1    2
    1    1    1    1    1    1    1    1    1    2    1    1    1    1    1
    1    1    1    1    2    1    1    1    1    1    1    1    1    1    4
    1    1    1    1    1    1    1    2    1    1    1    1    1    2    1
    1    1    2    2    2    4    2    1    2    2    1    1    1    2    2
    1    1    1    1    1    2    1    1    1    1    1    1    2    2    1
    1    1    1    1    1    2    1    1    1    1    1    1    1    2    1
    1    1    1    1    1    1    2    1    1    1    1    1    1    1    2
    1    1    1    1    1    1    1    2    1    1    1    1    1    1    1
    4    1    1    1    1    1    2    2    1    1    2    2    4    2    1
    2    2    1    1    1    2    1    1    1    1    2    1    1    1    1
    2    2    1    1    1    1    2    1    1    1    1    1    2    1    1
    1    1    1    2    1    1    1    1    1    2    1    1    1    1    1
    2    2    1    1    1    1    4    1    1    2    2    4    2    1    2
    1    1    2    1    1    2    1    1    2    2    1    1    2    1    1
    1    2    1    1    1    2    2    1    1    2    1    1    2    1    1
    4    2    4    2    2    2    2    2    2    2    2    2    2    2    4
   -7   -7  -10    1    1    0.000011   -0.000000
   -7   -7  -10    2    1    0.000000    0.000000
   -7   -7  -10    3    1   -0.000000   -0.000000
   -7   -7  -10    1    2    0.000000    0.000000
   -7   -7  -10    2    2    0.000006   -0.000000
   -7   -7  -10    3    2   -0.000000    0.000000
   -7   -7  -10    1    3   -0.000000   -0.000000
   -7   -7  -10    2    3   -0.000000    0.000000
   -7   -7  -10    3    3    0.000006   -0.000000
   -7   -6   -9    1    1   -0.000007   -0.000000
   -7   -6   -9    2    1   -0.000000   -0.000000
   -7   -6   -9    3    1    0.000003   -0.000000
   -7   -6   -9    1    2   -0.000000   -0.000000
   -7   -6   -9    2    2   -0.000018    0.000000
   -7   -6   -9    3    2    0.000000    0.000000
   -7   -6   -9    1    3    0.000003   -0.000000
   -7   -6   -9    2    3    0.000000    0.000000
   -7   -6   -9    3    3   -0.000001   -0.000000
   -7   -5   -8    1    1   -0.000012   -0.000000
   -7   -5   -8    2    1   -0.000000   -0.000000
   -7   -5   -8    3    1    0.000002   -0.000000
   -7   -5   -8    1    2   -0.000000   -0.000000
   -7   -5   -8    2    2   -0.000016   -0.000000
   -7   -5   -8    3    2    0.000000    0.000000
   -7   -5   -8    1    3    0.000002   -0.000000
   -7   -5   -8    2    3    0.000000    0.000000
   -7   -5   -8    3    3   -0.000021    0.000000
   -7   -4   -7    1    1    0.000001   -0.000000
   -7   -4   -7    2    1    0.000000    0.000000
   -7   -4   -7    3    1    0.000001   -0.000000
   -7   -4   -7    1    2    0.000000    0.000000
   -7   -4   -7    2    2   -0.000004   -0.000000
   -7   -4   -7    3    2   -0.000000   -0.000000
   -7   -4   -7    1    3    0.000001   -0.000000
   -7   -4   -7    2    3   -0.000000   -0.000000
   -7   -4   -7    3    3    0.000007    0.000000
   -7   -3   -6    1    1   -0.000005    0.000000
   -7   -3   -6    2    1    0.000000    0.000000
   -7   -3   -6    3    1    0.000009   -0.000000
   -7   -3   -6    1    2    0.000000    0.000000
   -7   -3   -6    2    2    0.000009    0.000000
   -7   -3   -6    3    2   -0.000000   -0.000000
   -7   -3   -6    1    3    0.000009   -0.000000
   -7   -3   -6    2    3   -0.000000   -0.000000
   -7   -3   -6    3    3    0.000018   -0.000000
   -7   -3   -5    1    1    0.000001    0.000000
   -7   -3   -5    2    1    0.000003   -0.000000
   -7   -3   -5    3    1   -0.000003    0.000000
   -7   -3   -5    1    2    0.000003   -0.000000
   -7   -3   -5    2    2   -0.000008   -0.000000
   -7   -3   -5    3    2   -0.000004    0.000000
   -7   -3   -5    1    3   -0.000003    0.000000
   -7   -3   -5    2    3   -0.000004    0.000000
   -7   -3   -5    3    3   -0.000008   -0.000000
   -7   -2   -5    1    1    0.000014    0.000000
   -7   -2   -5    2    1    0.000000    0.000000
   -7   -2   -5    3    1    0.000000    0.000000
   -7   -2   -5    1    2    0.000000    0.000000
   -7   -2   -5    2    2   -0.000001    0.000000
   -7   -2   -5    3    2    0.000000    0.000000
   -7   -2   -5    1    3    0.000000    0.000000
   -7   -2   -5    2    3    0.000000    0.000000
   -7   -2   -5    3    3    0.000043    0.000000
   -7   -2   -4    1    1    0.000001   -0.000000
   -7   -2   -4    2    1    0.000003    0.000000
   -7   -2   -4    3    1    0.000003    0.000000
   -7   -2   -4    1    2    0.000003    0.000000
   -7   -2   -4    2    2   -0.000008    0.000000
   -7   -2   -4    3    2    0.000004    0.000000
   -7   -2   -4    1    3    0.000003    0.000000
   -7   -2   -4    2    3    0.000004    0.000000
   -7   -2   -4    3    3   -0.000008    0.000000
   -7   -1   -4    1    1   -0.000005   -0.000000
   -7   -1   -4    2    1   -0.000000   -0.000000
   -7   -1   -4    3    1   -0.000009   -0.000000
   -7   -1   -4    1    2   -0.000000   -0.000000
   -7   -1   -4    2    2    0.000009   -0.000000
   -7   -1   -4    3    2   -0.000000   -0.000000
   -7   -1   -4    1    3   -0.000009   -0.000000
   -7   -1   -4    2    3   -0.000000   -0.000000
   -7   -1   -4    3    3    0.000018   -0.000000
   -7    0   -3    1    1    0.000001   -0.000000
   -7    0   -3    2    1   -0.000000   -0.000000
   -7    0   -3    3    1   -0.000001    0.000000
   -7    0   -3    1    2   -0.000000   -0.000000
   -7    0   -3    2    2   -0.000004   -0.000000
   -7    0   -3    3    2   -0.000000   -0.000000
   -7    0   -3    1    3   -0.000001    0.000000
   -7    0   -3    2    3   -0.000000   -0.000000
   -7    0   -3    3    3    0.000007   -0.000000
   -7    1   -2    1    1   -0.000012   -0.000000
   -7    1   -2    2    1    0.000000    0.000000
   -7    1   -2    3    1   -0.000002   -0.000000
   -7    1   -2    1    2    0.000000    0.000000
   -7    1   -2    2    2   -0.000016   -0.000000
   -7    1   -2    3    2    0.000000    0.000000
   -7    1   -2    1    3   -0.000002   -0.000000
   -7    1   -2    2    3    0.000000    0.000000
   -7    1   -2    3    3   -0.000021   -0.000000
   -7    2   -1    1    1   -0.000007   -0.000000
   -7    2   -1    2    1    0.000000    0.000000
   -7    2   -1    3    1   -0.000003    0.000000
   -7    2   -1    1    2    0.000000    0.000000
   -7    2   -1    2    2   -0.000018   -0.000000
   -7    2   -1    3    2    0.000000    0.000000
   -7    2   -1    1    3   -0.000003    0.000000
   -7    2   -1    2    3    0.000000    0.000000
   -7    2   -1    3    3   -0.000001    0.000000
   -7    3    0    1    1    0.000011   -0.000000
   -7    3    0    2    1    0.000000    0.000000
   -7    3    0    3    1   -0.000000   -0.000000
   -7    3    0    1    2    0.000000    0.000000
   -7    3    0    2    2    0.000006   -0.000000
   -7    3    0    3    2   -0.000000    0.000000
   -7    3    0    1    3   -0.000000   -0.000000
   -7    3    0    2    3   -0.000000    0.000000
   -7    3    0    3    3    0.000006   -0.000000
   -6   -7   -9    1    1   -0.000007   -0.000000
   -6   -7   -9    2    1   -0.000003   -0.000000
   -6   -7   -9    3    1   -0.000000   -0.000000
   -6   -7   -9    1    2   -0.000003   -0.000000
   -6   -7   -9    2    2   -0.000001   -0.000000
   -6   -7   -9    3    2   -0.000000   -0.000000
   -6   -7   -9    1    3   -0.000000   -0.000000
   -6   -7   -9    2    3   -0.000000   -0.000000
   -6   -7   -9    3    3   -0.000018   -0.000000
   -6   -6  -10    1    1    0.000045    0.000000
   -6   -6  -10    2    1    0.000000    0.000000
   -6   -6  -10    3    1   -0.000000   -0.000000
   -6   -6  -10    1    2    0.000000   -0.000000
   -6   -6  -10    2    2   -0.000006   -0.000000
   -6   -6  -10    3    2    0.000000    0.000000
   -6   -6  -10    1    3   -0.000000   -0.000000
   -6   -6  -10    2    3    0.000000    0.000000
   -6   -6  -10    3    3   -0.000006    0.000000
   -6   -6   -9    1    1    0.000001    0.000000
   -6   -6   -9    2    1   -0.000004   -0.000000
   -6   -6   -9    3    1    0.000004   -0.000000
   -6   -6   -9    1    2   -0.000004   -0.000000
   -6   -6   -9    2    2   -0.000010    0.000000
   -6   -6   -9    3    2    0.000004   -0.000000
   -6   -6   -9    1    3    0.000004   -0.000000
   -6   -6   -9    2    3    0.000004   -0.000000
   -6   -6   -9    3    3   -0.000010   -0.000000
   -6   -6   -8    1    1   -0.000002   -0.000000
   -6   -6   -8    2    1   -0.000001   -0.000000
   -6   -6   -8    3    1    0.000001   -0.000000
   -6   -6   -8    1    2   -0.000001   -0.000000
   -6   -6   -8    2    2    0.000002   -0.000000
   -6   -6   -8    3    2   -0.000001   -0.000000
   -6   -6   -8    1    3    0.000001   -0.000000
   -6   -6   -8    2    3   -0.000001   -0.000000
   -6   -6   -8    3    3    0.000002    0.000000
   -6   -5   -9    1    1    0.000018    0.000000
   -6   -5   -9    2    1   -0.000000   -0.000000
   -6   -5   -9    3    1    0.000004    0.000000
   -6   -5   -9    1    2   -0.000000   -0.000000
   -6   -5   -9    2    2    0.000001    0.000000
   -6   -5   -9    3    2   -0.000000    0.000000
   -6   -5   -9    1    3    0.000004    0.000000
   -6   -5   -9    2    3   -0.000000    0.000000
   -6   -5   -9    3    3    0.000008   -0.000000
   -6   -5   -8    1    1   -0.000006   -0.000000
   -6   -5   -8    2    1    0.000013   -0.000000
   -6   -5   -8    3    1    0.000002   -0.000000
   -6   -5   -8    1    2    0.000013   -0.000000
   -6   -5   -8    2    2    0.000004    0.000000
   -6   -5   -8    3    2    0.000000    0.000000
   -6   -5   -8    1    3    0.000002   -0.000000
   -6   -5   -8    2    3    0.000000    0.000000
   -6   -5   -8    3    3   -0.000013   -0.000000
   -6   -5   -7    1    1   -0.000005    0.000000
   -6   -5   -7    2    1    0.000006    0.000000
   -6   -5   -7    3    1    0.000003    0.000000
   -6   -5   -7    1    2    0.000006    0.000000
   -6   -5   -7    2    2   -0.000015   -0.000000
   -6   -5   -7    3    2   -0.000012    0.000000
   -6   -5   -7    1    3    0.000003    0.000000
   -6   -5   -7    2    3   -0.000012    0.000000
   -6   -5   -7    3    3   -0.000015    0.000000
   -6   -4   -8    1    1   -0.000014   -0.000000
   -6   -4   -8    2    1   -0.000000   -0.000000
   -6   -4   -8    3    1   -0.000006    0.000000
   -6   -4   -8    1    2   -0.000000   -0.000000
   -6   -4   -8    2    2    0.000007   -0.000000
   -6   -4   -8    3    2   -0.000000    0.000000
   -6   -4   -8    1    3   -0.000006    0.000000
   -6   -4   -8    2    3   -0.000000    0.000000
   -6   -4   -8    3    3   -0.000006    0.000000
   -6   -4   -7    1    1   -0.000011   -0.000000
   -6   -4   -7    2    1   -0.000006    0.000000
   -6   -4   -7    3    1    0.000005    0.000000
   -6   -4   -7    1    2   -0.000006    0.000000
   -6   -4   -7    2    2   -0.000008   -0.000000
   -6   -4   -7    3    2    0.000011    0.000000
   -6   -4   -7    1    3    0.000005    0.000000
   -6   -4   -7    2    3    0.000011    0.000000
   -6   -4   -7    3    3   -0.000007    0.000000
   -6   -4   -6    1    1    0.000003   -0.000000
   -6   -4   -6    2    1   -0.000000    0.000000
   -6   -4   -6    3    1    0.000001    0.000000
   -6   -4   -6    1    2   -0.000000    0.000000
   -6   -4   -6    2    2    0.000006    0.000000
   -6   -4   -6    3    2    0.000003   -0.000000
   -6   -4   -6    1    3    0.000001    0.000000
   -6   -4   -6    2    3    0.000003   -0.000000
   -6   -4   -6    3    3    0.000005   -0.000000
   -6   -4   -5    1    1   -0.000014    0.000000
   -6   -4   -5    2    1    0.000003    0.000000
   -6   -4   -5    3    1   -0.000003   -0.000000
   -6   -4   -5    1    2    0.000003    0.000000
   -6   -4   -5    2    2   -0.000004   -0.000000
   -6   -4   -5    3    2    0.000004    0.000000
   -6   -4   -5    1    3   -0.000003   -0.000000
   -6   -4   -5    2    3    0.000004    0.000000
   -6   -4   -5    3    3   -0.000004   -0.000000
   -6   -3   -7    1    1   -0.000013   -0.000000
   -6   -3   -7    2    1   -0.000000   -0.000000
   -6   -3   -7    3    1   -0.000005   -0.000000
   -6   -3   -7    1    2   -0.000000   -0.000000
   -6   -3   -7    2    2   -0.000003    0.000000
   -6   -3   -7    3    2    0.000000   -0.000000
   -6   -3   -7    1    3   -0.000005   -0.000000
   -6   -3   -7    2    3    0.000000   -0.000000
   -6   -3   -7    3    3   -0.000001    0.000000
   -6   -3   -6    1    1   -0.000009   -0.000000
   -6   -3   -6    2    1    0.000002    0.000000
   -6   -3   -6    3    1    0.000006   -0.000000
   -6   -3   -6    1    2    0.000002    0.000000
   -6   -3   -6    2    2   -0.000004   -0.000000
   -6   -3   -6    3    2   -0.000007   -0.000000
   -6   -3   -6    1    3    0.000006   -0.000000
   -6   -3   -6    2    3   -0.000007   -0.000000
   -6   -3   -6    3    3   -0.000005    0.000000
   -6   -3   -5    1    1   -0.000002   -0.000000
   -6   -3   -5    2    1    0.000005    0.000000
   -6   -3   -5    3    1   -0.000001    0.000000
   -6   -3   -5    1    2    0.000005    0.000000
   -6   -3   -5    2    2    0.000002    0.000000
   -6   -3   -5    3    2   -0.000005    0.000000
   -6   -3   -5    1    3   -0.000001    0.000000
   -6   -3   -5    2    3   -0.000005    0.000000
   -6   -3   -5    3    3   -0.000020   -0.000000
   -6   -3   -4    1    1   -0.000004    0.000000
   -6   -3   -4    2    1    0.000005    0.000000
   -6   -3   -4    3    1    0.000002    0.000000
   -6   -3   -4    1    2    0.000005    0.000000
   -6   -3   -4    2    2   -0.000002    0.000000
   -6   -3   -4    3    2   -0.000009    0.000000
   -6   -3   -4    1    3    0.000002    0.000000
   -6   -3   -4    2    3   -0.000009    0.000000
   -6   -3   -4    3    3   -0.000004   -0.000000
   -6   -2   -6    1    1    0.000001   -0.000000
   -6   -2   -6    2    1    0.000000    0.000000
   -6   -2   -6    3    1   -0.000002   -0.000000
   -6   -2   -6    1    2    0.000000    0.000000
   -6   -2   -6    2    2    0.000002    0.000000
   -6   -2   -6    3    2    0.000000    0.000000
   -6   -2   -6    1    3   -0.000002   -0.000000
   -6   -2   -6    2    3    0.000000    0.000000
   -6   -2   -6    3    3    0.000014   -0.000000
   -6   -2   -5    1    1    0.000008   -0.000000
   -6   -2   -5    2    1   -0.000004   -0.000000
   -6   -2   -5    3    1    0.000008   -0.000000
   -6   -2   -5    1    2   -0.000004   -0.000000
   -6   -2   -5    2    2    0.000006   -0.000000
   -6   -2   -5    3    2    0.000006   -0.000000
   -6   -2   -5    1    3    0.000008   -0.000000
   -6   -2   -5    2    3    0.000006   -0.000000
   -6   -2   -5    3    3    0.000001    0.000000
   -6   -2   -4    1    1   -0.000002    0.000000
   -6   -2   -4    2    1   -0.000008    0.000000
   -6   -2   -4    3    1    0.000000    0.000000
   -6   -2   -4    1    2   -0.000008    0.000000
   -6   -2   -4    2    2    0.000015    0.000000
   -6   -2   -4    3    2    0.000000    0.000000
   -6   -2   -4    1    3    0.000000    0.000000
   -6   -2   -4    2    3    0.000000    0.000000
   -6   -2   -4    3    3   -0.000003   -0.000000
   -6   -2   -3    1    1   -0.000004   -0.000000
   -6   -2   -3    2    1    0.000005   -0.000000
   -6   -2   -3    3    1   -0.000002    0.000000
   -6   -2   -3    1    2    0.000005   -0.000000
   -6   -2   -3    2    2   -0.000002   -0.000000
   -6   -2   -3    3    2    0.000009    0.000000
   -6   -2   -3    1    3   -0.000002    0.000000
   -6   -2   -3    2    3    0.000009    0.000000
   -6   -2   -3    3    3   -0.000004    0.000000
   -6   -1   -5    1    1   -0.000000    0.000000
   -6   -1   -5    2    1    0.000000    0.000000
   -6   -1   -5    3    1   -0.000000    0.000000
   -6   -1   -5    1    2    0.000000    0.000000
   -6   -1   -5    2    2   -0.000027   -0.000000
   -6   -1   -5    3    2    0.000000   -0.000000
   -6   -1   -5    1    3   -0.000000    0.000000
   -6   -1   -5    2    3    0.000000   -0.000000
   -6   -1   -5    3    3    0.000052   -0.000000
   -6   -1   -4    1    1    0.000008    0.000000
   -6   -1   -4    2    1   -0.000004    0.000000
   -6   -1   -4    3    1   -0.000008   -0.000000
   -6   -1   -4    1    2   -0.000004    0.000000
   -6   -1   -4    2    2    0.000006    0.000000
   -6   -1   -4    3    2   -0.000006   -0.000000
   -6   -1   -4    1    3   -0.000008   -0.000000
   -6   -1   -4    2    3   -0.000006   -0.000000
   -6   -1   -4    3    3    0.000001   -0.000000
   -6   -1   -3    1    1   -0.000002    0.000000
   -6   -1   -3    2    1    0.000005   -0.000000
   -6   -1   -3    3    1    0.000001    0.000000
   -6   -1   -3    1    2    0.000005   -0.000000
   -6   -1   -3    2    2    0.000002   -0.000000
   -6   -1   -3    3    2    0.000005    0.000000
   -6   -1   -3    1    3    0.000001    0.000000
   -6   -1   -3    2    3    0.000005    0.000000
   -6   -1   -3    3    3   -0.000020    0.000000
   -6   -1   -2    1    1   -0.000014   -0.000000
   -6   -1   -2    2    1    0.000003   -0.000000
   -6   -1   -2    3    1    0.000003   -0.000000
   -6   -1   -2    1    2    0.000003   -0.000000
   -6   -1   -2    2    2   -0.000004    0.000000
   -6   -1   -2    3    2   -0.000004    0.000000
   -6   -1   -2    1    3    0.000003   -0.000000
   -6   -1   -2    2    3   -0.000004    0.000000
   -6   -1   -2    3    3   -0.000004    0.000000
   -6    0   -4    1    1    0.000001    0.000000
   -6    0   -4    2    1   -0.000000   -0.000000
   -6    0   -4    3    1    0.000002    0.000000
   -6    0   -4    1    2   -0.000000   -0.000000
   -6    0   -4    2    2    0.000002   -0.000000
   -6    0   -4    3    2    0.000000    0.000000
   -6    0   -4    1    3    0.000002    0.000000
   -6    0   -4    2    3    0.000000    0.000000
   -6    0   -4    3    3    0.000014    0.000000
   -6    0   -3    1    1   -0.000009    0.000000
   -6    0   -3    2    1    0.000002   -0.000000
   -6    0   -3    3    1   -0.000006   -0.000000
   -6    0   -3    1    2    0.000002   -0.000000
   -6    0   -3    2    2   -0.000004    0.000000
   -6    0   -3    3    2    0.000007   -0.000000
   -6    0   -3    1    3   -0.000006   -0.000000
   -6    0   -3    2    3    0.000007   -0.000000
   -6    0   -3    3    3   -0.000005   -0.000000
   -6    0   -2    1    1    0.000003    0.000000
   -6    0   -2    2    1   -0.000000   -0.000000
   -6    0   -2    3    1   -0.000001    0.000000
   -6    0   -2    1    2   -0.000000   -0.000000
   -6    0   -2    2    2    0.000006   -0.000000
   -6    0   -2    3    2   -0.000003   -0.000000
   -6    0   -2    1    3   -0.000001    0.000000
   -6    0   -2    2    3   -0.000003   -0.000000
   -6    0   -2    3    3    0.000005    0.000000
   -6    1   -3    1    1   -0.000013    0.000000
   -6    1   -3    2    1    0.000000    0.000000
   -6    1   -3    3    1    0.000005    0.000000
   -6    1   -3    1    2    0.000000    0.000000
   -6    1   -3    2    2   -0.000003    0.000000
   -6    1   -3    3    2    0.000000   -0.000000
   -6    1   -3    1    3    0.000005    0.000000
   -6    1   -3    2    3    0.000000   -0.000000
   -6    1   -3    3    3   -0.000001   -0.000000
   -6    1   -2    1    1   -0.000011    0.000000
   -6    1   -2    2    1   -0.000006   -0.000000
   -6    1   -2    3    1   -0.000005    0.000000
   -6    1   -2    1    2   -0.000006   -0.000000
   -6    1   -2    2    2   -0.000008    0.000000
   -6    1   -2    3    2   -0.000011    0.000000
   -6    1   -2    1    3   -0.000005    0.000000
   -6    1   -2    2    3   -0.000011    0.000000
   -6    1   -2    3    3   -0.000007   -0.000000
   -6    1   -1    1    1   -0.000005   -0.000000
   -6    1   -1    2    1    0.000006   -0.000000
   -6    1   -1    3    1   -0.000003    0.000000
   -6    1   -1    1    2    0.000006   -0.000000
   -6    1   -1    2    2   -0.000015    0.000000
   -6    1   -1    3    2    0.000012    0.000000
   -6    1   -1    1    3   -0.000003    0.000000
   -6    1   -1    2    3    0.000012    0.000000
   -6    1   -1    3    3   -0.000015   -0.000000
   -6    2   -2    1    1   -0.000014   -0.000000
   -6    2   -2    2    1    0.000000    0.000000
   -6    2   -2    3    1    0.000006    0.000000
   -6    2   -2    1    2    0.000000    0.000000
   -6    2   -2    2    2    0.000007    0.000000
   -6    2   -2    3    2   -0.000000    0.000000
   -6    2   -2    1    3    0.000006    0.000000
   -6    2   -2    2    3   -0.000000    0.000000
   -6    2   -2    3    3   -0.000006   -0.000000
   -6    2   -1    1    1   -0.000006   -0.000000
   -6    2   -1    2    1    0.000013    0.000000
   -6    2   -1    3    1   -0.000002   -0.000000
   -6    2   -1    1    2    0.000013    0.000000
   -6    2   -1    2    2    0.000004   -0.000000
   -6    2   -1    3    2   -0.000000    0.000000
   -6    2   -1    1    3   -0.000002   -0.000000
   -6    2   -1    2    3   -0.000000    0.000000
   -6    2   -1    3    3   -0.000013    0.000000
   -6    2    0    1    1   -0.000002    0.000000
   -6    2    0    2    1   -0.000001    0.000000
   -6    2    0    3    1   -0.000001   -0.000000
   -6    2    0    1    2   -0.000001    0.000000
   -6    2    0    2    2    0.000002    0.000000
   -6    2    0    3    2    0.000001    0.000000
   -6    2    0    1    3   -0.000001   -0.000000
   -6    2    0    2    3    0.000001    0.000000
   -6    2    0    3    3    0.000002   -0.000000
   -6    3   -1    1    1    0.000018    0.000000
   -6    3   -1    2    1    0.000000    0.000000
   -6    3   -1    3    1   -0.000004    0.000000
   -6    3   -1    1    2    0.000000    0.000000
   -6    3   -1    2    2    0.000001   -0.000000
   -6    3   -1    3    2   -0.000000    0.000000
   -6    3   -1    1    3   -0.000004    0.000000
   -6    3   -1    2    3   -0.000000    0.000000
   -6    3   -1    3    3    0.000008   -0.000000
   -6    3    0    1    1    0.000001    0.000000
   -6    3    0    2    1   -0.000004    0.000000
   -6    3    0    3    1   -0.000004   -0.000000
   -6    3    0    1    2   -0.000004    0.000000
   -6    3    0    2    2   -0.000010   -0.000000
   -6    3    0    3    2   -0.000004   -0.000000
   -6    3    0    1    3   -0.000004   -0.000000
   -6    3    0    2    3   -0.000004   -0.000000
   -6    3    0    3    3   -0.000010    0.000000
   -6    3    1    1    1   -0.000007   -0.000000
   -6    3    1    2    1   -0.000003   -0.000000
   -6    3    1    3    1   -0.000000   -0.000000
   -6    3    1    1    2   -0.000003   -0.000000
   -6    3    1    2    2   -0.000001   -0.000000
   -6    3    1    3    2   -0.000000   -0.000000
   -6    3    1    1    3   -0.000000   -0.000000
   -6    3    1    2    3   -0.000000   -0.000000
   -6    3    1    3    3   -0.000018   -0.000000
   -6    4    0    1    1    0.000045    0.000000
   -6    4    0    2    1    0.000000    0.000000
   -6    4    0    3    1   -0.000000   -0.000000
   -6    4    0    1    2    0.000000   -0.000000
   -6    4    0    2    2   -0.000006   -0.000000
   -6    4    0    3    2    0.000000    0.000000
   -6    4    0    1    3   -0.000000   -0.000000
   -6    4    0    2    3    0.000000    0.000000
   -6    4    0    3    3   -0.000006    0.000000
   -5   -7   -8    1    1   -0.000012   -0.000000
   -5   -7   -8    2    1   -0.000002    0.000000
   -5   -7   -8    3    1   -0.000000   -0.000000
   -5   -7   -8    1    2   -0.000002    0.000000
   -5   -7   -8    2    2   -0.000021    0.000000
   -5   -7   -8    3    2   -0.000000   -0.000000
   -5   -7   -8    1    3   -0.000000   -0.000000
   -5   -7   -8    2    3   -0.000000   -0.000000
   -5   -7   -8    3    3   -0.000016   -0.000000
   -5   -6   -9    1    1    0.000018   -0.000000
   -5   -6   -9    2    1   -0.000004   -0.000000
   -5   -6   -9    3    1   -0.000000   -0.000000
   -5   -6   -9    1    2   -0.000004   -0.000000
   -5   -6   -9    2    2    0.000008   -0.000000
   -5   -6   -9    3    2    0.000000   -0.000000
   -5   -6   -9    1    3   -0.000000   -0.000000
   -5   -6   -9    2    3    0.000000   -0.000000
   -5   -6   -9    3    3    0.000001    0.000000
   -5   -6   -8    1    1   -0.000006    0.000000
   -5   -6   -8    2    1   -0.000002   -0.000000
   -5   -6   -8    3    1   -0.000013   -0.000000
   -5   -6   -8    1    2   -0.000002   -0.000000
   -5   -6   -8    2    2   -0.000013    0.000000
   -5   -6   -8    3    2    0.000000   -0.000000
   -5   -6   -8    1    3   -0.000013   -0.000000
   -5   -6   -8    2    3    0.000000   -0.000000
   -5   -6   -8    3    3    0.000004   -0.000000
   -5   -6   -7    1    1   -0.000005   -0.000000
   -5   -6   -7    2    1   -0.000003    0.000000
   -5   -6   -7    3    1   -0.000006    0.000000
   -5   -6   -7    1    2   -0.000003    0.000000
   -5   -6   -7    2    2   -0.000015   -0.000000
   -5   -6   -7    3    2   -0.000012   -0.000000
   -5   -6   -7    1    3   -0.000006    0.000000
   -5   -6   -7    2    3   -0.000012   -0.000000
   -5   -6   -7    3    3   -0.000015    0.000000
   -5   -5  -10    1    1   -0.001699    0.000000
   -5   -5  -10    2    1   -0.000000   -0.000000
   -5   -5  -10    3    1    0.000000    0.000000
   -5   -5  -10    1    2   -0.000000    0.000000
   -5   -5  -10    2    2   -0.000026    0.000000
   -5   -5  -10    3    2   -0.000000   -0.000000
   -5   -5  -10    1    3    0.000000   -0.000000
   -5   -5  -10    2    3   -0.000000    0.000000
   -5   -5  -10    3    3   -0.000026    0.000000
   -5   -5   -9    1    1   -0.000065   -0.000000
   -5   -5   -9    2    1    0.000024   -0.000000
   -5   -5   -9    3    1   -0.000024   -0.000000
   -5   -5   -9    1    2    0.000024   -0.000000
   -5   -5   -9    2    2   -0.000003    0.000000
   -5   -5   -9    3    2   -0.000002   -0.000000
   -5   -5   -9    1    3   -0.000024   -0.000000
   -5   -5   -9    2    3   -0.000002   -0.000000
   -5   -5   -9    3    3   -0.000003   -0.000000
   -5   -5   -8    1    1    0.000015   -0.000000
   -5   -5   -8    2    1    0.000001   -0.000000
   -5   -5   -8    3    1   -0.000001   -0.000000
   -5   -5   -8    1    2    0.000001   -0.000000
   -5   -5   -8    2    2   -0.000001    0.000000
   -5   -5   -8    3    2   -0.000000    0.000000
   -5   -5   -8    1    3   -0.000001   -0.000000
   -5   -5   -8    2    3   -0.000000    0.000000
   -5   -5   -8    3    3   -0.000001   -0.000000
   -5   -5   -7    1    1   -0.000005   -0.000000
   -5   -5   -7    2    1    0.000001   -0.000000
   -5   -5   -7    3    1   -0.000001   -0.000000
   -5   -5   -7    1    2    0.000001   -0.000000
   -5   -5   -7    2    2    0.000002    0.000000
   -5   -5   -7    3    2    0.000002   -0.000000
   -5   -5   -7    1    3   -0.000001   -0.000000
   -5   -5   -7    2    3    0.000002   -0.000000
   -5   -5   -7    3    3    0.000002   -0.000000
   -5   -5   -6    1    1   -0.000003    0.000000
   -5   -5   -6    2    1    0.000007    0.000000
   -5   -5   -6    3    1   -0.000007    0.000000
   -5   -5   -6    1    2    0.000007    0.000000
   -5   -5   -6    2    2    0.000003    0.000000
   -5   -5   -6    3    2   -0.000002   -0.000000
   -5   -5   -6    1    3   -0.000007    0.000000
   -5   -5   -6    2    3   -0.000002   -0.000000
   -5   -5   -6    3    3    0.000003   -0.000000
   -5   -5   -5    1    1   -0.000021   -0.000000
   -5   -5   -5    2    1   -0.000011    0.000000
   -5   -5   -5    3    1    0.000011    0.000000
   -5   -5   -5    1    2   -0.000011   -0.000000
   -5   -5   -5    2    2   -0.000014   -0.000000
   -5   -5   -5    3    2    0.000005    0.000000
   -5   -5   -5    1    3    0.000011   -0.000000
   -5   -5   -5    2    3    0.000005   -0.000000
   -5   -5   -5    3    3   -0.000014   -0.000000
   -5   -4   -9    1    1   -0.001647   -0.000000
   -5   -4   -9    2    1   -0.000000   -0.000000
   -5   -4   -9    3    1   -0.000000   -0.000000
   -5   -4   -9    1    2   -0.000000   -0.000000
   -5   -4   -9    2    2    0.000014   -0.000000
   -5   -4   -9    3    2    0.000000   -0.000000
   -5   -4   -9    1    3   -0.000000   -0.000000
   -5   -4   -9    2    3    0.000000   -0.000000
   -5   -4   -9    3    3    0.000002   -0.000000
   -5   -4   -8    1    1   -0.000021    0.000000
   -5   -4   -8    2    1    0.000013   -0.000000
   -5   -4   -8    3    1   -0.000014   -0.000000
   -5   -4   -8    1    2    0.000013   -0.000000
   -5   -4   -8    2    2   -0.000002    0.000000
   -5   -4   -8    3    2   -0.000003    0.000000
   -5   -4   -8    1    3   -0.000014   -0.000000
   -5   -4   -8    2    3   -0.000003    0.000000
   -5   -4   -8    3    3   -0.000014   -0.000000
   -5   -4   -7    1    1   -0.000007    0.000000
   -5   -4   -7    2    1    0.000008   -0.000000
   -5   -4   -7    3    1   -0.000018   -0.000000
   -5   -4   -7    1    2    0.000008   -0.000000
   -5   -4   -7    2    2   -0.000011    0.000000
   -5   -4   -7    3    2    0.000008    0.000000
   -5   -4   -7    1    3   -0.000018   -0.000000
   -5   -4   -7    2    3    0.000008    0.000000
   -5   -4   -7    3    3    0.000015   -0.000000
   -5   -4   -6    1    1   -0.000004   -0.000000
   -5   -4   -6    2    1   -0.000003    0.000000
   -5   -4   -6    3    1    0.000002   -0.000000
   -5   -4   -6    1    2   -0.000003    0.000000
   -5   -4   -6    2    2   -0.000000   -0.000000
   -5   -4   -6    3    2    0.000007    0.000000
   -5   -4   -6    1    3    0.000002   -0.000000
   -5   -4   -6    2    3    0.000007    0.000000
   -5   -4   -6    3    3   -0.000014    0.000000
   -5   -4   -5    1    1   -0.000008   -0.000000
   -5   -4   -5    2    1   -0.000006    0.000000
   -5   -4   -5    3    1    0.000009    0.000000
   -5   -4   -5    1    2   -0.000006    0.000000
   -5   -4   -5    2    2    0.000001    0.000000
   -5   -4   -5    3    2    0.000002   -0.000000
   -5   -4   -5    1    3    0.000009    0.000000
   -5   -4   -5    2    3    0.000002   -0.000000
   -5   -4   -5    3    3   -0.000024   -0.000000
   -5   -4   -4    1    1   -0.000005    0.000000
   -5   -4   -4    2    1    0.000003    0.000000
   -5   -4   -4    3    1    0.000007    0.000000
   -5   -4   -4    1    2    0.000003    0.000000
   -5   -4   -4    2    2    0.000001   -0.000000
   -5   -4   -4    3    2   -0.000005    0.000000
   -5   -4   -4    1    3    0.000007    0.000000
   -5   -4   -4    2    3   -0.000005    0.000000
   -5   -4   -4    3    3   -0.000009    0.000000
   -5   -3   -8    1    1   -0.001839   -0.000000
   -5   -3   -8    2    1   -0.000000   -0.000000
   -5   -3   -8    3    1   -0.000000   -0.000000
   -5   -3   -8    1    2   -0.000000   -0.000000
   -5   -3   -8    2    2    0.000014   -0.000000
   -5   -3   -8    3    2   -0.000000   -0.000000
   -5   -3   -8    1    3   -0.000000   -0.000000
   -5   -3   -8    2    3   -0.000000   -0.000000
   -5   -3   -8    3    3    0.000013    0.000000
   -5   -3   -7    1    1   -0.000017   -0.000000
   -5   -3   -7    2    1    0.000020   -0.000000
   -5   -3   -7    3    1   -0.000020   -0.000000
   -5   -3   -7    1    2    0.000020   -0.000000
   -5   -3   -7    2    2    0.000004    0.000000
   -5   -3   -7    3    2   -0.000027    0.000000
   -5   -3   -7    1    3   -0.000020   -0.000000
   -5   -3   -7    2    3   -0.000027    0.000000
   -5   -3   -7    3    3   -0.000011   -0.000000
   -5   -3   -6    1    1   -0.000002    0.000000
   -5   -3   -6    2    1    0.000004    0.000000
   -5   -3   -6    3    1   -0.000012    0.000000
   -5   -3   -6    1    2    0.000004    0.000000
   -5   -3   -6    2    2    0.000007    0.000000
   -5   -3   -6    3    2   -0.000012   -0.000000
   -5   -3   -6    1    3   -0.000012    0.000000
   -5   -3   -6    2    3   -0.000012   -0.000000
   -5   -3   -6    3    3    0.000029   -0.000000
   -5   -3   -5    1    1    0.000010   -0.000000
   -5   -3   -5    2    1    0.000003   -0.000000
   -5   -3   -5    3    1   -0.000007   -0.000000
   -5   -3   -5    1    2    0.000003   -0.000000
   -5   -3   -5    2    2    0.000005   -0.000000
   -5   -3   -5    3    2    0.000004   -0.000000
   -5   -3   -5    1    3   -0.000007   -0.000000
   -5   -3   -5    2    3    0.000004   -0.000000
   -5   -3   -5    3    3    0.000011    0.000000
   -5   -3   -4    1    1    0.000005   -0.000000
   -5   -3   -4    2    1   -0.000001    0.000000
   -5   -3   -4    3    1    0.000003    0.000000
   -5   -3   -4    1    2   -0.000001    0.000000
   -5   -3   -4    2    2   -0.000007    0.000000
   -5   -3   -4    3    2    0.000005    0.000000
   -5   -3   -4    1    3    0.000003    0.000000
   -5   -3   -4    2    3    0.000005    0.000000
   -5   -3   -4    3    3   -0.000006   -0.000000
   -5   -3   -3    1    1    0.000013    0.000000
   -5   -3   -3    2    1    0.000002    0.000000
   -5   -3   -3    3    1   -0.000001    0.000000
   -5   -3   -3    1    2    0.000002    0.000000
   -5   -3   -3    2    2    0.000010   -0.000000
   -5   -3   -3    3    2   -0.000000   -0.000000
   -5   -3   -3    1    3   -0.000001    0.000000
   -5   -3   -3    2    3   -0.000000   -0.000000
   -5   -3   -3    3    3    0.000025    0.000000
   -5   -2   -7    1    1   -0.001893    0.000000
   -5   -2   -7    2    1   -0.000000    0.000000
   -5   -2   -7    3    1   -0.000000    0.000000
   -5   -2   -7    1    2   -0.000000    0.000000
   -5   -2   -7    2    2   -0.000004   -0.000000
   -5   -2   -7    3    2   -0.000000   -0.000000
   -5   -2   -7    1    3   -0.000000    0.000000
   -5   -2   -7    2    3   -0.000000   -0.000000
   -5   -2   -7    3    3   -0.000100    0.000000
   -5   -2   -6    1    1   -0.000034    0.000000
   -5   -2   -6    2    1    0.000013   -0.000000
   -5   -2   -6    3    1    0.000005   -0.000000
   -5   -2   -6    1    2    0.000013   -0.000000
   -5   -2   -6    2    2   -0.000009    0.000000
   -5   -2   -6    3    2   -0.000026   -0.000000
   -5   -2   -6    1    3    0.000005   -0.000000
   -5   -2   -6    2    3   -0.000026   -0.000000
   -5   -2   -6    3    3    0.000015   -0.000000
   -5   -2   -5    1    1    0.000005    0.000000
   -5   -2   -5    2    1    0.000000    0.000000
   -5   -2   -5    3    1    0.000005    0.000000
   -5   -2   -5    1    2    0.000000    0.000000
   -5   -2   -5    2    2   -0.000006   -0.000000
   -5   -2   -5    3    2   -0.000003   -0.000000
   -5   -2   -5    1    3    0.000005    0.000000
   -5   -2   -5    2    3   -0.000003   -0.000000
   -5   -2   -5    3    3   -0.000008    0.000000
   -5   -2   -4    1    1   -0.000008   -0.000000
   -5   -2   -4    2    1    0.000007   -0.000000
   -5   -2   -4    3    1    0.000005   -0.000000
   -5   -2   -4    1    2    0.000007   -0.000000
   -5   -2   -4    2    2    0.000000   -0.000000
   -5   -2   -4    3    2    0.000006    0.000000
   -5   -2   -4    1    3    0.000005   -0.000000
   -5   -2   -4    2    3    0.000006    0.000000
   -5   -2   -4    3    3   -0.000028    0.000000
   -5   -2   -3    1    1    0.000003    0.000000
   -5   -2   -3    2    1    0.000000    0.000000
   -5   -2   -3    3    1    0.000000    0.000000
   -5   -2   -3    1    2    0.000000    0.000000
   -5   -2   -3    2    2   -0.000006   -0.000000
   -5   -2   -3    3    2    0.000000    0.000000
   -5   -2   -3    1    3    0.000000    0.000000
   -5   -2   -3    2    3    0.000000    0.000000
   -5   -2   -3    3    3    0.000001   -0.000000
   -5   -2   -2    1    1    0.000013   -0.000000
   -5   -2   -2    2    1    0.000002   -0.000000
   -5   -2   -2    3    1    0.000001    0.000000
   -5   -2   -2    1    2    0.000002   -0.000000
   -5   -2   -2    2    2    0.000010    0.000000
   -5   -2   -2    3    2    0.000000   -0.000000
   -5   -2   -2    1    3    0.000001    0.000000
   -5   -2   -2    2    3    0.000000   -0.000000
   -5   -2   -2    3    3    0.000025   -0.000000
   -5   -1   -6    1    1   -0.001565    0.000000
   -5   -1   -6    2    1   -0.000000   -0.000000
   -5   -1   -6    3    1   -0.000000   -0.000000
   -5   -1   -6    1    2   -0.000000   -0.000000
   -5   -1   -6    2    2   -0.000010    0.000000
   -5   -1   -6    3    2   -0.000000   -0.000000
   -5   -1   -6    1    3   -0.000000   -0.000000
   -5   -1   -6    2    3   -0.000000   -0.000000
   -5   -1   -6    3    3   -0.000463    0.000000
   -5   -1   -5    1    1   -0.000163    0.000000
   -5   -1   -5    2    1    0.000004   -0.000000
   -5   -1   -5    3    1    0.000004   -0.000000
   -5   -1   -5    1    2    0.000004   -0.000000
   -5   -1   -5    2    2   -0.000009   -0.000000
   -5   -1   -5    3    2   -0.000014    0.000000
   -5   -1   -5    1    3    0.000004   -0.000000
   -5   -1   -5    2    3   -0.000014    0.000000
   -5   -1   -5    3    3    0.000095    0.000000
   -5   -1   -4    1    1    0.000024   -0.000000
   -5   -1   -4    2    1   -0.000007   -0.000000
   -5   -1   -4    3    1   -0.000000    0.000000
   -5   -1   -4    1    2   -0.000007   -0.000000
   -5   -1   -4    2    2   -0.000005    0.000000
   -5   -1   -4    3    2    0.000000   -0.000000
   -5   -1   -4    1    3   -0.000000    0.000000
   -5   -1   -4    2    3    0.000000   -0.000000
   -5   -1   -4    3    3    0.000075   -0.000000
   -5   -1   -3    1    1   -0.000008    0.000000
   -5   -1   -3    2    1    0.000007    0.000000
   -5   -1   -3    3    1   -0.000005   -0.000000
   -5   -1   -3    1    2    0.000007    0.000000
   -5   -1   -3    2    2    0.000000    0.000000
   -5   -1   -3    3    2   -0.000006    0.000000
   -5   -1   -3    1    3   -0.000005   -0.000000
   -5   -1   -3    2    3   -0.000006    0.000000
   -5   -1   -3    3    3   -0.000028   -0.000000
   -5   -1   -2    1    1    0.000005    0.000000
   -5   -1   -2    2    1   -0.000001   -0.000000
   -5   -1   -2    3    1   -0.000003    0.000000
   -5   -1   -2    1    2   -0.000001   -0.000000
   -5   -1   -2    2    2   -0.000007   -0.000000
   -5   -1   -2    3    2   -0.000005    0.000000
   -5   -1   -2    1    3   -0.000003    0.000000
   -5   -1   -2    2    3   -0.000005    0.000000
   -5   -1   -2    3    3   -0.000006    0.000000
   -5   -1   -1    1    1   -0.000005   -0.000000
   -5   -1   -1    2    1    0.000003   -0.000000
   -5   -1   -1    3    1   -0.000007    0.000000
   -5   -1   -1    1    2    0.000003   -0.000000
   -5   -1   -1    2    2    0.000001    0.000000
   -5   -1   -1    3    2    0.000005    0.000000
   -5   -1   -1    1    3   -0.000007    0.000000
   -5   -1   -1    2    3    0.000005    0.000000
   -5   -1   -1    3    3   -0.000009   -0.000000
   -5    0   -5    1    1   -0.001159   -0.000000
   -5    0   -5    2    1   -0.000000   -0.000000
   -5    0   -5    3    1    0.000000    0.000000
   -5    0   -5    1    2   -0.000000    0.000000
   -5    0   -5    2    2   -0.000004   -0.000000
   -5    0   -5    3    2   -0.000000   -0.000000
   -5    0   -5    1    3    0.000000   -0.000000
   -5    0   -5    2    3   -0.000000    0.000000
   -5    0   -5    3    3   -0.000765   -0.000000
   -5    0   -4    1    1   -0.000163   -0.000000
   -5    0   -4    2    1    0.000004    0.000000
   -5    0   -4    3    1   -0.000004   -0.000000
   -5    0   -4    1    2    0.000004    0.000000
   -5    0   -4    2    2   -0.000009    0.000000
   -5    0   -4    3    2    0.000014    0.000000
   -5    0   -4    1    3   -0.000004   -0.000000
   -5    0   -4    2    3    0.000014    0.000000
   -5    0   -4    3    3    0.000095   -0.000000
   -5    0   -3    1    1    0.000005   -0.000000
   -5    0   -3    2    1    0.000000   -0.000000
   -5    0   -3    3    1   -0.000005    0.000000
   -5    0   -3    1    2    0.000000   -0.000000
   -5    0   -3    2    2   -0.000006    0.000000
   -5    0   -3    3    2    0.000003   -0.000000
   -5    0   -3    1    3   -0.000005    0.000000
   -5    0   -3    2    3    0.000003   -0.000000
   -5    0   -3    3    3   -0.000008   -0.000000
   -5    0   -2    1    1    0.000010    0.000000
   -5    0   -2    2    1    0.000003    0.000000
   -5    0   -2    3    1    0.000007   -0.000000
   -5    0   -2    1    2    0.000003    0.000000
   -5    0   -2    2    2    0.000005    0.000000
   -5    0   -2    3    2   -0.000004   -0.000000
   -5    0   -2    1    3    0.000007   -0.000000
   -5    0   -2    2    3   -0.000004   -0.000000
   -5    0   -2    3    3    0.000011   -0.000000
   -5    0   -1    1    1   -0.000008    0.000000
   -5    0   -1    2    1   -0.000006   -0.000000
   -5    0   -1    3    1   -0.000009    0.000000
   -5    0   -1    1    2   -0.000006   -0.000000
   -5    0   -1    2    2    0.000001   -0.000000
   -5    0   -1    3    2   -0.000002   -0.000000
   -5    0   -1    1    3   -0.000009    0.000000
   -5    0   -1    2    3   -0.000002   -0.000000
   -5    0   -1    3    3   -0.000024    0.000000
   -5    0    0    1    1   -0.000021   -0.000000
   -5    0    0    2    1   -0.000011   -0.000000
   -5    0    0    3    1   -0.000011   -0.000000
   -5    0    0    1    2   -0.000011    0.000000
   -5    0    0    2    2   -0.000014   -0.000000
   -5    0    0    3    2   -0.000005   -0.000000
   -5    0    0    1    3   -0.000011    0.000000
   -5    0    0    2    3   -0.000005    0.000000
   -5    0    0    3    3   -0.000014   -0.000000
   -5    1   -4    1    1   -0.001565   -0.000000
   -5    1   -4    2    1   -0.000000    0.000000
   -5    1   -4    3    1   -0.000000    0.000000
   -5    1   -4    1    2   -0.000000    0.000000
   -5    1   -4    2    2   -0.000010   -0.000000
   -5    1   -4    3    2   -0.000000    0.000000
   -5    1   -4    1    3   -0.000000    0.000000
   -5    1   -4    2    3   -0.000000    0.000000
   -5    1   -4    3    3   -0.000463   -0.000000
   -5    1   -3    1    1   -0.000034   -0.000000
   -5    1   -3    2    1    0.000013    0.000000
   -5    1   -3    3    1   -0.000005   -0.000000
   -5    1   -3    1    2    0.000013    0.000000
   -5    1   -3    2    2   -0.000009   -0.000000
   -5    1   -3    3    2    0.000026   -0.000000
   -5    1   -3    1    3   -0.000005   -0.000000
   -5    1   -3    2    3    0.000026   -0.000000
   -5    1   -3    3    3    0.000015    0.000000
   -5    1   -2    1    1   -0.000002   -0.000000
   -5    1   -2    2    1    0.000004   -0.000000
   -5    1   -2    3    1    0.000012    0.000000
   -5    1   -2    1    2    0.000004   -0.000000
   -5    1   -2    2    2    0.000007   -0.000000
   -5    1   -2    3    2    0.000012   -0.000000
   -5    1   -2    1    3    0.000012    0.000000
   -5    1   -2    2    3    0.000012   -0.000000
   -5    1   -2    3    3    0.000029    0.000000
   -5    1   -1    1    1   -0.000004    0.000000
   -5    1   -1    2    1   -0.000003   -0.000000
   -5    1   -1    3    1   -0.000002   -0.000000
   -5    1   -1    1    2   -0.000003   -0.000000
   -5    1   -1    2    2   -0.000000    0.000000
   -5    1   -1    3    2   -0.000007    0.000000
   -5    1   -1    1    3   -0.000002   -0.000000
   -5    1   -1    2    3   -0.000007    0.000000
   -5    1   -1    3    3   -0.000014   -0.000000
   -5    1    0    1    1   -0.000003   -0.000000
   -5    1    0    2    1    0.000007   -0.000000
   -5    1    0    3    1    0.000007    0.000000
   -5    1    0    1    2    0.000007   -0.000000
   -5    1    0    2    2    0.000003   -0.000000
   -5    1    0    3    2    0.000002    0.000000
   -5    1    0    1    3    0.000007    0.000000
   -5    1    0    2    3    0.000002    0.000000
   -5    1    0    3    3    0.000003    0.000000
   -5    2   -3    1    1   -0.001893   -0.000000
   -5    2   -3    2    1   -0.000000   -0.000000
   -5    2   -3    3    1   -0.000000   -0.000000
   -5    2   -3    1    2   -0.000000   -0.000000
   -5    2   -3    2    2   -0.000004    0.000000
   -5    2   -3    3    2   -0.000000    0.000000
   -5    2   -3    1    3   -0.000000   -0.000000
   -5    2   -3    2    3   -0.000000    0.000000
   -5    2   -3    3    3   -0.000100   -0.000000
   -5    2   -2    1    1   -0.000017    0.000000
   -5    2   -2    2    1    0.000020    0.000000
   -5    2   -2    3    1    0.000020   -0.000000
   -5    2   -2    1    2    0.000020    0.000000
   -5    2   -2    2    2    0.000004   -0.000000
   -5    2   -2    3    2    0.000027    0.000000
   -5    2   -2    1    3    0.000020   -0.000000
   -5    2   -2    2    3    0.000027    0.000000
   -5    2   -2    3    3   -0.000011    0.000000
   -5    2   -1    1    1   -0.000007   -0.000000
   -5    2   -1    2    1    0.000008    0.000000
   -5    2   -1    3    1    0.000018   -0.000000
   -5    2   -1    1    2    0.000008    0.000000
   -5    2   -1    2    2   -0.000011   -0.000000
   -5    2   -1    3    2   -0.000008    0.000000
   -5    2   -1    1    3    0.000018   -0.000000
   -5    2   -1    2    3   -0.000008    0.000000
   -5    2   -1    3    3    0.000015    0.000000
   -5    2    0    1    1   -0.000005   -0.000000
   -5    2    0    2    1    0.000001    0.000000
   -5    2    0    3    1    0.000001   -0.000000
   -5    2    0    1    2    0.000001    0.000000
   -5    2    0    2    2    0.000002   -0.000000
   -5    2    0    3    2   -0.000002   -0.000000
   -5    2    0    1    3    0.000001   -0.000000
   -5    2    0    2    3   -0.000002   -0.000000
   -5    2    0    3    3    0.000002    0.000000
   -5    2    1    1    1   -0.000005    0.000000
   -5    2    1    2    1   -0.000003   -0.000000
   -5    2    1    3    1    0.000006    0.000000
   -5    2    1    1    2   -0.000003   -0.000000
   -5    2    1    2    2   -0.000015    0.000000
   -5    2    1    3    2    0.000012   -0.000000
   -5    2    1    1    3    0.000006    0.000000
   -5    2    1    2    3    0.000012   -0.000000
   -5    2    1    3    3   -0.000015   -0.000000
   -5    3   -2    1    1   -0.001839    0.000000
   -5    3   -2    2    1   -0.000000    0.000000
   -5    3   -2    3    1   -0.000000    0.000000
   -5    3   -2    1    2   -0.000000    0.000000
   -5    3   -2    2    2    0.000014    0.000000
   -5    3   -2    3    2   -0.000000    0.000000
   -5    3   -2    1    3   -0.000000    0.000000
   -5    3   -2    2    3   -0.000000    0.000000
   -5    3   -2    3    3    0.000013   -0.000000
   -5    3   -1    1    1   -0.000021   -0.000000
   -5    3   -1    2    1    0.000013    0.000000
   -5    3   -1    3    1    0.000014   -0.000000
   -5    3   -1    1    2    0.000013    0.000000
   -5    3   -1    2    2   -0.000002   -0.000000
   -5    3   -1    3    2    0.000003    0.000000
   -5    3   -1    1    3    0.000014   -0.000000
   -5    3   -1    2    3    0.000003    0.000000
   -5    3   -1    3    3   -0.000014    0.000000
   -5    3    0    1    1    0.000015   -0.000000
   -5    3    0    2    1    0.000001    0.000000
   -5    3    0    3    1    0.000001   -0.000000
   -5    3    0    1    2    0.000001    0.000000
   -5    3    0    2    2   -0.000001   -0.000000
   -5    3    0    3    2    0.000000   -0.000000
   -5    3    0    1    3    0.000001   -0.000000
   -5    3    0    2    3    0.000000   -0.000000
   -5    3    0    3    3   -0.000001    0.000000
   -5    3    1    1    1   -0.000006   -0.000000
   -5    3    1    2    1   -0.000002    0.000000
   -5    3    1    3    1    0.000013   -0.000000
   -5    3    1    1    2   -0.000002    0.000000
   -5    3    1    2    2   -0.000013   -0.000000
   -5    3    1    3    2   -0.000000   -0.000000
   -5    3    1    1    3    0.000013   -0.000000
   -5    3    1    2    3   -0.000000   -0.000000
   -5    3    1    3    3    0.000004    0.000000
   -5    3    2    1    1   -0.000012   -0.000000
   -5    3    2    2    1   -0.000002    0.000000
   -5    3    2    3    1   -0.000000   -0.000000
   -5    3    2    1    2   -0.000002    0.000000
   -5    3    2    2    2   -0.000021    0.000000
   -5    3    2    3    2   -0.000000   -0.000000
   -5    3    2    1    3   -0.000000   -0.000000
   -5    3    2    2    3   -0.000000   -0.000000
   -5    3    2    3    3   -0.000016   -0.000000
   -5    4   -1    1    1   -0.001647    0.000000
   -5    4   -1    2    1   -0.000000    0.000000
   -5    4   -1    3    1   -0.000000    0.000000
   -5    4   -1    1    2   -0.000000    0.000000
   -5    4   -1    2    2    0.000014    0.000000
   -5    4   -1    3    2    0.000000    0.000000
   -5    4   -1    1    3   -0.000000    0.000000
   -5    4   -1    2    3    0.000000    0.000000
   -5    4   -1    3    3    0.000002    0.000000
   -5    4    0    1    1   -0.000065   -0.000000
   -5    4    0    2    1    0.000024    0.000000
   -5    4    0    3    1    0.000024   -0.000000
   -5    4    0    1    2    0.000024    0.000000
   -5    4    0    2    2   -0.000003   -0.000000
   -5    4    0    3    2    0.000002    0.000000
   -5    4    0    1    3    0.000024   -0.000000
   -5    4    0    2    3    0.000002    0.000000
   -5    4    0    3    3   -0.000003    0.000000
   -5    4    1    1    1    0.000018   -0.000000
   -5    4    1    2    1   -0.000004   -0.000000
   -5    4    1    3    1   -0.000000   -0.000000
   -5    4    1    1    2   -0.000004   -0.000000
   -5    4    1    2    2    0.000008   -0.000000
   -5    4    1    3    2    0.000000   -0.000000
   -5    4    1    1    3   -0.000000   -0.000000
   -5    4    1    2    3    0.000000   -0.000000
   -5    4    1    3    3    0.000001    0.000000
   -5    5    0    1    1   -0.001699    0.000000
   -5    5    0    2    1   -0.000000   -0.000000
   -5    5    0    3    1    0.000000    0.000000
   -5    5    0    1    2   -0.000000    0.000000
   -5    5    0    2    2   -0.000026    0.000000
   -5    5    0    3    2   -0.000000   -0.000000
   -5    5    0    1    3    0.000000   -0.000000
   -5    5    0    2    3   -0.000000    0.000000
   -5    5    0    3    3   -0.000026   -0.000000
   -4   -7   -7    1    1    0.000001   -0.000000
   -4   -7   -7    2    1   -0.000001   -0.000000
   -4   -7   -7    3    1    0.000000    0.000000
   -4   -7   -7    1    2   -0.000001   -0.000000
   -4   -7   -7    2    2    0.000007   -0.000000
   -4   -7   -7    3    2    0.000000    0.000000
   -4   -7   -7    1    3    0.000000    0.000000
   -4   -7   -7    2    3    0.000000    0.000000
   -4   -7   -7    3    3   -0.000004   -0.000000
   -4   -6   -8    1    1   -0.000014   -0.000000
   -4   -6   -8    2    1    0.000006    0.000000
   -4   -6   -8    3    1   -0.000000   -0.000000
   -4   -6   -8    1    2    0.000006    0.000000
   -4   -6   -8    2    2   -0.000006   -0.000000
   -4   -6   -8    3    2    0.000000   -0.000000
   -4   -6   -8    1    3   -0.000000   -0.000000
   -4   -6   -8    2    3    0.000000   -0.000000
   -4   -6   -8    3    3    0.000007   -0.000000
   -4   -6   -7    1    1   -0.000011    0.000000
   -4   -6   -7    2    1   -0.000005    0.000000
   -4   -6   -7    3    1    0.000006    0.000000
   -4   -6   -7    1    2   -0.000005    0.000000
   -4   -6   -7    2    2   -0.000007   -0.000000
   -4   -6   -7    3    2    0.000011   -0.000000
   -4   -6   -7    1    3    0.000006    0.000000
   -4   -6   -7    2    3    0.000011   -0.000000
   -4   -6   -7    3    3   -0.000008    0.000000
   -4   -6   -6    1    1    0.000003    0.000000
   -4   -6   -6    2    1   -0.000001    0.000000
   -4   -6   -6    3    1    0.000000    0.000000
   -4   -6   -6    1    2   -0.000001    0.000000
   -4   -6   -6    2    2    0.000005    0.000000
   -4   -6   -6    3    2    0.000003    0.000000
   -4   -6   -6    1    3    0.000000    0.000000
   -4   -6   -6    2    3    0.000003    0.000000
   -4   -6   -6    3    3    0.000006   -0.000000
   -4   -6   -5    1    1   -0.000014   -0.000000
   -4   -6   -5    2    1    0.000003   -0.000000
   -4   -6   -5    3    1   -0.000003    0.000000
   -4   -6   -5    1    2    0.000003   -0.000000
   -4   -6   -5    2    2   -0.000004    0.000000
   -4   -6   -5    3    2    0.000004   -0.000000
   -4   -6   -5    1    3   -0.000003    0.000000
   -4   -6   -5    2    3    0.000004   -0.000000
   -4   -6   -5    3    3   -0.000004    0.000000
   -4   -5   -9    1    1   -0.001647    0.000000
   -4   -5   -9    2    1   -0.000000   -0.000000
   -4   -5   -9    3    1    0.000000   -0.000000
   -4   -5   -9    1    2   -0.000000   -0.000000
   -4   -5   -9    2    2    0.000002    0.000000
   -4   -5   -9    3    2   -0.000000    0.000000
   -4   -5   -9    1    3    0.000000   -0.000000
   -4   -5   -9    2    3   -0.000000    0.000000
   -4   -5   -9    3    3    0.000014    0.000000
   -4   -5   -8    1    1   -0.000021   -0.000000
   -4   -5   -8    2    1    0.000014   -0.000000
   -4   -5   -8    3    1   -0.000013   -0.000000
   -4   -5   -8    1    2    0.000014   -0.000000
   -4   -5   -8    2    2   -0.000014    0.000000
   -4   -5   -8    3    2   -0.000003   -0.000000
   -4   -5   -8    1    3   -0.000013   -0.000000
   -4   -5   -8    2    3   -0.000003   -0.000000
   -4   -5   -8    3    3   -0.000002   -0.000000
   -4   -5   -7    1    1   -0.000007   -0.000000
   -4   -5   -7    2    1    0.000018   -0.000000
   -4   -5   -7    3    1   -0.000008   -0.000000
   -4   -5   -7    1    2    0.000018   -0.000000
   -4   -5   -7    2    2    0.000015    0.000000
   -4   -5   -7    3    2    0.000008   -0.000000
   -4   -5   -7    1    3   -0.000008   -0.000000
   -4   -5   -7    2    3    0.000008   -0.000000
   -4   -5   -7    3    3   -0.000011   -0.000000
   -4   -5   -6    1    1   -0.000004    0.000000
   -4   -5   -6    2    1   -0.000002   -0.000000
   -4   -5   -6    3    1    0.000003    0.000000
   -4   -5   -6    1    2   -0.000002   -0.000000
   -4   -5   -6    2    2   -0.000014   -0.000000
   -4   -5   -6    3    2    0.000007   -0.000000
   -4   -5   -6    1    3    0.000003    0.000000
   -4   -5   -6    2    3    0.000007   -0.000000
   -4   -5   -6    3    3   -0.000000    0.000000
   -4   -5   -5    1    1   -0.000008    0.000000
   -4   -5   -5    2    1   -0.000009    0.000000
   -4   -5   -5    3    1    0.000006    0.000000
   -4   -5   -5    1    2   -0.000009    0.000000
   -4   -5   -5    2    2   -0.000024    0.000000
   -4   -5   -5    3    2    0.000002    0.000000
   -4   -5   -5    1    3    0.000006    0.000000
   -4   -5   -5    2    3    0.000002    0.000000
   -4   -5   -5    3    3    0.000001   -0.000000
   -4   -5   -4    1    1   -0.000005   -0.000000
   -4   -5   -4    2    1   -0.000007    0.000000
   -4   -5   -4    3    1   -0.000003    0.000000
   -4   -5   -4    1    2   -0.000007    0.000000
   -4   -5   -4    2    2   -0.000009   -0.000000
   -4   -5   -4    3    2   -0.000005   -0.000000
   -4   -5   -4    1    3   -0.000003    0.000000
   -4   -5   -4    2    3   -0.000005   -0.000000
   -4   -5   -4    3    3    0.000001    0.000000
   -4   -4  -10    1    1    0.000045   -0.000000
   -4   -4  -10    2    1    0.000000    0.000000
   -4   -4  -10    3    1   -0.000000    0.000000
   -4   -4  -10    1    2    0.000000   -0.000000
   -4   -4  -10    2    2   -0.000006    0.000000
   -4   -4  -10    3    2    0.000000   -0.000000
   -4   -4  -10    1    3   -0.000000    0.000000
   -4   -4  -10    2    3    0.000000   -0.000000
   -4   -4  -10    3    3   -0.000006   -0.000000
   -4   -4   -9    1    1   -0.000065    0.000000
   -4   -4   -9    2    1   -0.000024   -0.000000
   -4   -4   -9    3    1    0.000024   -0.000000
   -4   -4   -9    1    2   -0.000024   -0.000000
   -4   -4   -9    2    2   -0.000003   -0.000000
   -4   -4   -9    3    2   -0.000002   -0.000000
   -4   -4   -9    1    3    0.000024   -0.000000
   -4   -4   -9    2    3   -0.000002   -0.000000
   -4   -4   -9    3    3   -0.000003    0.000000
   -4   -4   -8    1    1   -0.001907    0.000000
   -4   -4   -8    2    1    0.000000   -0.000000
   -4   -4   -8    3    1    0.000000   -0.000000
   -4   -4   -8    1    2    0.000000   -0.000000
   -4   -4   -8    2    2    0.000018   -0.000000
   -4   -4   -8    3    2   -0.000016    0.000000
   -4   -4   -8    1    3    0.000000   -0.000000
   -4   -4   -8    2    3   -0.000016    0.000000
   -4   -4   -8    3    3    0.000018   -0.000000
   -4   -4   -7    1    1   -0.000031    0.000000
   -4   -4   -7    2    1    0.000036   -0.000000
   -4   -4   -7    3    1   -0.000036   -0.000000
   -4   -4   -7    1    2    0.000036   -0.000000
   -4   -4   -7    2    2    0.000020    0.000000
   -4   -4   -7    3    2    0.000004    0.000000
   -4   -4   -7    1    3   -0.000036   -0.000000
   -4   -4   -7    2    3    0.000004    0.000000
   -4   -4   -7    3    3    0.000020   -0.000000
   -4   -4   -6    1    1   -0.000078    0.000000
   -4   -4   -6    2    1    0.000012   -0.000000
   -4   -4   -6    3    1   -0.000012   -0.000000
   -4   -4   -6    1    2    0.000012   -0.000000
   -4   -4   -6    2    2   -0.000022    0.000000
   -4   -4   -6    3    2    0.000017   -0.000000
   -4   -4   -6    1    3   -0.000012   -0.000000
   -4   -4   -6    2    3    0.000017   -0.000000
   -4   -4   -6    3    3   -0.000022   -0.000000
   -4   -4   -5    1    1   -0.000008    0.000000
   -4   -4   -5    2    1    0.000004   -0.000000
   -4   -4   -5    3    1   -0.000004   -0.000000
   -4   -4   -5    1    2    0.000004   -0.000000
   -4   -4   -5    2    2   -0.000002   -0.000000
   -4   -4   -5    3    2    0.000016   -0.000000
   -4   -4   -5    1    3   -0.000004   -0.000000
   -4   -4   -5    2    3    0.000016   -0.000000
   -4   -4   -5    3    3   -0.000002    0.000000
   -4   -4   -4    1    1    0.000014   -0.000000
   -4   -4   -4    2    1    0.000003    0.000000
   -4   -4   -4    3    1   -0.000003    0.000000
   -4   -4   -4    1    2    0.000003    0.000000
   -4   -4   -4    2    2    0.000005    0.000000
   -4   -4   -4    3    2    0.000005   -0.000000
   -4   -4   -4    1    3   -0.000003    0.000000
   -4   -4   -4    2    3    0.000005   -0.000000
   -4   -4   -4    3    3    0.000005   -0.000000
   -4   -4   -3    1    1   -0.000001    0.000000
   -4   -4   -3    2    1   -0.000006    0.000000
   -4   -4   -3    3    1    0.000006    0.000000
   -4   -4   -3    1    2   -0.000006    0.000000
   -4   -4   -3    2    2    0.000003   -0.000000
   -4   -4   -3    3    2    0.000002   -0.000000
   -4   -4   -3    1    3    0.000006    0.000000
   -4   -4   -3    2    3    0.000002   -0.000000
   -4   -4   -3    3    3    0.000003    0.000000
   -4   -3   -9    1    1    0.000018   -0.000000
   -4   -3   -9    2    1    0.000000   -0.000000
   -4   -3   -9    3    1   -0.000004   -0.000000
   -4   -3   -9    1    2    0.000000   -0.000000
   -4   -3   -9    2    2    0.000001    0.000000
   -4   -3   -9    3    2   -0.000000   -0.000000
   -4   -3   -9    1    3   -0.000004   -0.000000
   -4   -3   -9    2    3   -0.000000   -0.000000
   -4   -3   -9    3    3    0.000008    0.000000
   -4   -3   -8    1    1   -0.000021   -0.000000
   -4   -3   -8    2    1   -0.000013   -0.000000
   -4   -3   -8    3    1    0.000014   -0.000000
   -4   -3   -8    1    2   -0.000013   -0.000000
   -4   -3   -8    2    2   -0.000002   -0.000000
   -4   -3   -8    3    2   -0.000003   -0.000000
   -4   -3   -8    1    3    0.000014   -0.000000
   -4   -3   -8    2    3   -0.000003   -0.000000
   -4   -3   -8    3    3   -0.000014    0.000000
   -4   -3   -7    1    1   -0.002246    0.000000
   -4   -3   -7    2    1    0.000000   -0.000000
   -4   -3   -7    3    1   -0.000000   -0.000000
   -4   -3   -7    1    2    0.000000   -0.000000
   -4   -3   -7    2    2   -0.000015   -0.000000
   -4   -3   -7    3    2    0.000007    0.000000
   -4   -3   -7    1    3   -0.000000   -0.000000
   -4   -3   -7    2    3    0.000007    0.000000
   -4   -3   -7    3    3    0.000032   -0.000000
   -4   -3   -6    1    1   -0.000000    0.000000
   -4   -3   -6    2    1    0.000071   -0.000000
   -4   -3   -6    3    1   -0.000077   -0.000000
   -4   -3   -6    1    2    0.000071   -0.000000
   -4   -3   -6    2    2    0.000035    0.000000
   -4   -3   -6    3    2   -0.000036   -0.000000
   -4   -3   -6    1    3   -0.000077   -0.000000
   -4   -3   -6    2    3   -0.000036   -0.000000
   -4   -3   -6    3    3   -0.000037   -0.000000
   -4   -3   -5    1    1   -0.000038    0.000000
   -4   -3   -5    2    1    0.000010    0.000000
   -4   -3   -5    3    1    0.000004    0.000000
   -4   -3   -5    1    2    0.000010    0.000000
   -4   -3   -5    2    2   -0.000020   -0.000000
   -4   -3   -5    3    2    0.000042   -0.000000
   -4   -3   -5    1    3    0.000004    0.000000
   -4   -3   -5    2    3    0.000042   -0.000000
   -4   -3   -5    3    3   -0.000068    0.000000
   -4   -3   -4    1    1   -0.000000   -0.000000
   -4   -3   -4    2    1    0.000009   -0.000000
   -4   -3   -4    3    1    0.000002   -0.000000
   -4   -3   -4    1    2    0.000009   -0.000000
   -4   -3   -4    2    2   -0.000000   -0.000000
   -4   -3   -4    3    2    0.000023    0.000000
   -4   -3   -4    1    3    0.000002   -0.000000
   -4   -3   -4    2    3    0.000023    0.000000
   -4   -3   -4    3    3   -0.000007    0.000000
   -4   -3   -3    1    1   -0.000005   -0.000000
   -4   -3   -3    2    1    0.000006    0.000000
   -4   -3   -3    3    1    0.000003    0.000000
   -4   -3   -3    1    2    0.000006    0.000000
   -4   -3   -3    2    2   -0.000002    0.000000
   -4   -3   -3    3    2    0.000010   -0.000000
   -4   -3   -3    1    3    0.000003    0.000000
   -4   -3   -3    2    3    0.000010   -0.000000
   -4   -3   -3    3    3   -0.000021   -0.000000
   -4   -3   -2    1    1   -0.000009    0.000000
   -4   -3   -2    2    1    0.000001   -0.000000
   -4   -3   -2    3    1   -0.000002    0.000000
   -4   -3   -2    1    2    0.000001   -0.000000
   -4   -3   -2    2    2   -0.000006   -0.000000
   -4   -3   -2    3    2    0.000004    0.000000
   -4   -3   -2    1    3   -0.000002    0.000000
   -4   -3   -2    2    3    0.000004    0.000000
   -4   -3   -2    3    3   -0.000031    0.000000
   -4   -2   -8    1    1   -0.000014    0.000000
   -4   -2   -8    2    1    0.000000   -0.000000
   -4   -2   -8    3    1    0.000006   -0.000000
   -4   -2   -8    1    2    0.000000   -0.000000
   -4   -2   -8    2    2    0.000007   -0.000000
   -4   -2   -8    3    2   -0.000000   -0.000000
   -4   -2   -8    1    3    0.000006   -0.000000
   -4   -2   -8    2    3   -0.000000   -0.000000
   -4   -2   -8    3    3   -0.000006    0.000000
   -4   -2   -7    1    1   -0.000017    0.000000
   -4   -2   -7    2    1   -0.000020   -0.000000
   -4   -2   -7    3    1    0.000020   -0.000000
   -4   -2   -7    1    2   -0.000020   -0.000000
   -4   -2   -7    2    2    0.000004   -0.000000
   -4   -2   -7    3    2   -0.000027   -0.000000
   -4   -2   -7    1    3    0.000020   -0.000000
   -4   -2   -7    2    3   -0.000027   -0.000000
   -4   -2   -7    3    3   -0.000011    0.000000
   -4   -2   -6    1    1   -0.002522   -0.000000
   -4   -2   -6    2    1    0.000000   -0.000000
   -4   -2   -6    3    1   -0.000000   -0.000000
   -4   -2   -6    1    2    0.000000   -0.000000
   -4   -2   -6    2    2    0.000004    0.000000
   -4   -2   -6    3    2    0.000089   -0.000000
   -4   -2   -6    1    3   -0.000000   -0.000000
   -4   -2   -6    2    3    0.000089   -0.000000
   -4   -2   -6    3    3    0.000048   -0.000000
   -4   -2   -5    1    1    0.000040    0.000000
   -4   -2   -5    2    1    0.000087   -0.000000
   -4   -2   -5    3    1   -0.000072    0.000000
   -4   -2   -5    1    2    0.000087   -0.000000
   -4   -2   -5    2    2   -0.000020   -0.000000
   -4   -2   -5    3    2   -0.000145   -0.000000
   -4   -2   -5    1    3   -0.000072    0.000000
   -4   -2   -5    2    3   -0.000145   -0.000000
   -4   -2   -5    3    3   -0.000018    0.000000
   -4   -2   -4    1    1   -0.000004   -0.000000
   -4   -2   -4    2    1    0.000029    0.000000
   -4   -2   -4    3    1   -0.000015   -0.000000
   -4   -2   -4    1    2    0.000029    0.000000
   -4   -2   -4    2    2    0.000003   -0.000000
   -4   -2   -4    3    2    0.000033    0.000000
   -4   -2   -4    1    3   -0.000015   -0.000000
   -4   -2   -4    2    3    0.000033    0.000000
   -4   -2   -4    3    3    0.000009    0.000000
   -4   -2   -3    1    1    0.000008   -0.000000
   -4   -2   -3    2    1    0.000004   -0.000000
   -4   -2   -3    3    1    0.000001   -0.000000
   -4   -2   -3    1    2    0.000004   -0.000000
   -4   -2   -3    2    2    0.000002   -0.000000
   -4   -2   -3    3    2    0.000012    0.000000
   -4   -2   -3    1    3    0.000001   -0.000000
   -4   -2   -3    2    3    0.000012    0.000000
   -4   -2   -3    3    3   -0.000028    0.000000
   -4   -2   -2    1    1   -0.000008    0.000000
   -4   -2   -2    2    1    0.000002   -0.000000
   -4   -2   -2    3    1    0.000000    0.000000
   -4   -2   -2    1    2    0.000002   -0.000000
   -4   -2   -2    2    2   -0.000003   -0.000000
   -4   -2   -2    3    2   -0.000000   -0.000000
   -4   -2   -2    1    3    0.000000    0.000000
   -4   -2   -2    2    3   -0.000000   -0.000000
   -4   -2   -2    3    3   -0.000029   -0.000000
   -4   -2   -1    1    1   -0.000009   -0.000000
   -4   -2   -1    2    1    0.000001    0.000000
   -4   -2   -1    3    1    0.000002    0.000000
   -4   -2   -1    1    2    0.000001    0.000000
   -4   -2   -1    2    2   -0.000006    0.000000
   -4   -2   -1    3    2   -0.000004    0.000000
   -4   -2   -1    1    3    0.000002    0.000000
   -4   -2   -1    2    3   -0.000004    0.000000
   -4   -2   -1    3    3   -0.000031   -0.000000
   -4   -1   -7    1    1   -0.000013   -0.000000
   -4   -1   -7    2    1    0.000000   -0.000000
   -4   -1   -7    3    1    0.000005   -0.000000
   -4   -1   -7    1    2    0.000000   -0.000000
   -4   -1   -7    2    2   -0.000003   -0.000000
   -4   -1   -7    3    2    0.000000    0.000000
   -4   -1   -7    1    3    0.000005   -0.000000
   -4   -1   -7    2    3    0.000000    0.000000
   -4   -1   -7    3    3   -0.000001   -0.000000
   -4   -1   -6    1    1   -0.000034   -0.000000
   -4   -1   -6    2    1   -0.000013   -0.000000
   -4   -1   -6    3    1   -0.000005   -0.000000
   -4   -1   -6    1    2   -0.000013   -0.000000
   -4   -1   -6    2    2   -0.000009   -0.000000
   -4   -1   -6    3    2   -0.000026    0.000000
   -4   -1   -6    1    3   -0.000005   -0.000000
   -4   -1   -6    2    3   -0.000026    0.000000
   -4   -1   -6    3    3    0.000015    0.000000
   -4   -1   -5    1    1   -0.002101   -0.000000
   -4   -1   -5    2    1    0.000000   -0.000000
   -4   -1   -5    3    1    0.000000   -0.000000
   -4   -1   -5    1    2    0.000000   -0.000000
   -4   -1   -5    2    2    0.000012   -0.000000
   -4   -1   -5    3    2    0.000089   -0.000000
   -4   -1   -5    1    3    0.000000   -0.000000
   -4   -1   -5    2    3    0.000089   -0.000000
   -4   -1   -5    3    3   -0.000382    0.000000
   -4   -1   -4    1    1   -0.000237    0.000000
   -4   -1   -4    2    1    0.000044    0.000000
   -4   -1   -4    3    1   -0.000008    0.000000
   -4   -1   -4    1    2    0.000044    0.000000
   -4   -1   -4    2    2   -0.000030   -0.000000
   -4   -1   -4    3    2   -0.000105    0.000000
   -4   -1   -4    1    3   -0.000008    0.000000
   -4   -1   -4    2    3   -0.000105    0.000000
   -4   -1   -4    3    3    0.000490    0.000000
   -4   -1   -3    1    1    0.000077   -0.000000
   -4   -1   -3    2    1    0.000041    0.000000
   -4   -1   -3    3    1   -0.000000    0.000000
   -4   -1   -3    1    2    0.000041    0.000000
   -4   -1   -3    2    2    0.000070    0.000000
   -4   -1   -3    3    2   -0.000000    0.000000
   -4   -1   -3    1    3   -0.000000    0.000000
   -4   -1   -3    2    3   -0.000000    0.000000
   -4   -1   -3    3    3   -0.000166    0.000000
   -4   -1   -2    1    1    0.000008    0.000000
   -4   -1   -2    2    1    0.000004    0.000000
   -4   -1   -2    3    1   -0.000001   -0.000000
   -4   -1   -2    1    2    0.000004    0.000000
   -4   -1   -2    2    2    0.000002    0.000000
   -4   -1   -2    3    2   -0.000012    0.000000
   -4   -1   -2    1    3   -0.000001   -0.000000
   -4   -1   -2    2    3   -0.000012    0.000000
   -4   -1   -2    3    3   -0.000028   -0.000000
   -4   -1   -1    1    1   -0.000005    0.000000
   -4   -1   -1    2    1    0.000006   -0.000000
   -4   -1   -1    3    1   -0.000003    0.000000
   -4   -1   -1    1    2    0.000006   -0.000000
   -4   -1   -1    2    2   -0.000002   -0.000000
   -4   -1   -1    3    2   -0.000010   -0.000000
   -4   -1   -1    1    3   -0.000003    0.000000
   -4   -1   -1    2    3   -0.000010   -0.000000
   -4   -1   -1    3    3   -0.000021    0.000000
   -4   -1    0    1    1   -0.000001   -0.000000
   -4   -1    0    2    1   -0.000006   -0.000000
   -4   -1    0    3    1   -0.000006    0.000000
   -4   -1    0    1    2   -0.000006   -0.000000
   -4   -1    0    2    2    0.000003    0.000000
   -4   -1    0    3    2   -0.000002    0.000000
   -4   -1    0    1    3   -0.000006    0.000000
   -4   -1    0    2    3   -0.000002    0.000000
   -4   -1    0    3    3    0.000003   -0.000000
   -4    0   -6    1    1    0.000001   -0.000000
   -4    0   -6    2    1   -0.000000    0.000000
   -4    0   -6    3    1    0.000002   -0.000000
   -4    0   -6    1    2   -0.000000    0.000000
   -4    0   -6    2    2    0.000002    0.000000
   -4    0   -6    3    2    0.000000   -0.000000
   -4    0   -6    1    3    0.000002   -0.000000
   -4    0   -6    2    3    0.000000   -0.000000
   -4    0   -6    3    3    0.000014   -0.000000
   -4    0   -5    1    1   -0.000163   -0.000000
   -4    0   -5    2    1   -0.000004   -0.000000
   -4    0   -5    3    1   -0.000004   -0.000000
   -4    0   -5    1    2   -0.000004   -0.000000
   -4    0   -5    2    2   -0.000009    0.000000
   -4    0   -5    3    2   -0.000014   -0.000000
   -4    0   -5    1    3   -0.000004   -0.000000
   -4    0   -5    2    3   -0.000014   -0.000000
   -4    0   -5    3    3    0.000095   -0.000000
   -4    0   -4    1    1   -0.001451   -0.000000
   -4    0   -4    2    1   -0.000000   -0.000000
   -4    0   -4    3    1    0.000000   -0.000000
   -4    0   -4    1    2   -0.000000   -0.000000
   -4    0   -4    2    2    0.000000    0.000000
   -4    0   -4    3    2    0.000000   -0.000000
   -4    0   -4    1    3    0.000000   -0.000000
   -4    0   -4    2    3    0.000000   -0.000000
   -4    0   -4    3    3   -0.000667    0.000000
   -4    0   -3    1    1   -0.000237   -0.000000
   -4    0   -3    2    1    0.000044   -0.000000
   -4    0   -3    3    1    0.000008    0.000000
   -4    0   -3    1    2    0.000044   -0.000000
   -4    0   -3    2    2   -0.000030    0.000000
   -4    0   -3    3    2    0.000105    0.000000
   -4    0   -3    1    3    0.000008    0.000000
   -4    0   -3    2    3    0.000105    0.000000
   -4    0   -3    3    3    0.000490   -0.000000
   -4    0   -2    1    1   -0.000004    0.000000
   -4    0   -2    2    1    0.000029   -0.000000
   -4    0   -2    3    1    0.000015   -0.000000
   -4    0   -2    1    2    0.000029   -0.000000
   -4    0   -2    2    2    0.000003    0.000000
   -4    0   -2    3    2   -0.000033    0.000000
   -4    0   -2    1    3    0.000015   -0.000000
   -4    0   -2    2    3   -0.000033    0.000000
   -4    0   -2    3    3    0.000009   -0.000000
   -4    0   -1    1    1   -0.000000    0.000000
   -4    0   -1    2    1    0.000009    0.000000
   -4    0   -1    3    1   -0.000002   -0.000000
   -4    0   -1    1    2    0.000009    0.000000
   -4    0   -1    2    2   -0.000000    0.000000
   -4    0   -1    3    2   -0.000023    0.000000
   -4    0   -1    1    3   -0.000002   -0.000000
   -4    0   -1    2    3   -0.000023    0.000000
   -4    0   -1    3    3   -0.000007   -0.000000
   -4    0    0    1    1    0.000014   -0.000000
   -4    0    0    2    1    0.000003   -0.000000
   -4    0    0    3    1    0.000003    0.000000
   -4    0    0    1    2    0.000003   -0.000000
   -4    0    0    2    2    0.000005   -0.000000
   -4    0    0    3    2   -0.000005   -0.000000
   -4    0    0    1    3    0.000003    0.000000
   -4    0    0    2    3   -0.000005   -0.000000
   -4    0    0    3    3    0.000005    0.000000
   -4    0    1    1    1   -0.000005    0.000000
   -4    0    1    2    1   -0.000007   -0.000000
   -4    0    1    3    1    0.000003    0.000000
   -4    0    1    1    2   -0.000007   -0.000000
   -4    0    1    2    2   -0.000009    0.000000
   -4    0    1    3    2    0.000005   -0.000000
   -4    0    1    1    3    0.000003    0.000000
   -4    0    1    2    3    0.000005   -0.000000
   -4    0    1    3    3    0.000001   -0.000000
   -4    1   -5    1    1   -0.000000   -0.000000
   -4    1   -5    2    1    0.000000   -0.000000
   -4    1   -5    3    1   -0.000000   -0.000000
   -4    1   -5    1    2    0.000000   -0.000000
   -4    1   -5    2    2   -0.000027    0.000000
   -4    1   -5    3    2    0.000000    0.000000
   -4    1   -5    1    3   -0.000000   -0.000000
   -4    1   -5    2    3    0.000000    0.000000
   -4    1   -5    3    3    0.000052    0.000000
   -4    1   -4    1    1   -0.000163    0.000000
   -4    1   -4    2    1   -0.000004    0.000000
   -4    1   -4    3    1    0.000004   -0.000000
   -4    1   -4    1    2   -0.000004    0.000000
   -4    1   -4    2    2   -0.000009   -0.000000
   -4    1   -4    3    2    0.000014   -0.000000
   -4    1   -4    1    3    0.000004   -0.000000
   -4    1   -4    2    3    0.000014   -0.000000
   -4    1   -4    3    3    0.000095    0.000000
   -4    1   -3    1    1   -0.002101    0.000000
   -4    1   -3    2    1   -0.000000    0.000000
   -4    1   -3    3    1    0.000000   -0.000000
   -4    1   -3    1    2    0.000000    0.000000
   -4    1   -3    2    2    0.000012   -0.000000
   -4    1   -3    3    2   -0.000089    0.000000
   -4    1   -3    1    3    0.000000   -0.000000
   -4    1   -3    2    3   -0.000089    0.000000
   -4    1   -3    3    3   -0.000382    0.000000
   -4    1   -2    1    1    0.000040   -0.000000
   -4    1   -2    2    1    0.000087    0.000000
   -4    1   -2    3    1    0.000072    0.000000
   -4    1   -2    1    2    0.000087    0.000000
   -4    1   -2    2    2   -0.000020    0.000000
   -4    1   -2    3    2    0.000145   -0.000000
   -4    1   -2    1    3    0.000072    0.000000
   -4    1   -2    2    3    0.000145   -0.000000
   -4    1   -2    3    3   -0.000018   -0.000000
   -4    1   -1    1    1   -0.000038   -0.000000
   -4    1   -1    2    1    0.000010   -0.000000
   -4    1   -1    3    1   -0.000004    0.000000
   -4    1   -1    1    2    0.000010   -0.000000
   -4    1   -1    2    2   -0.000020    0.000000
   -4    1   -1    3    2   -0.000042   -0.000000
   -4    1   -1    1    3   -0.000004    0.000000
   -4    1   -1    2    3   -0.000042   -0.000000
   -4    1   -1    3    3   -0.000068   -0.000000
   -4    1    0    1    1   -0.000008   -0.000000
   -4    1    0    2    1    0.000004    0.000000
   -4    1    0    3    1    0.000004   -0.000000
   -4    1    0    1    2    0.000004    0.000000
   -4    1    0    2    2   -0.000002    0.000000
   -4    1    0    3    2   -0.000016    0.000000
   -4    1    0    1    3    0.000004   -0.000000
   -4    1    0    2    3   -0.000016    0.000000
[...]
    6   -2    0    1    3   -0.000001    0.000000
    6   -2    0    2    3    0.000001   -0.000000
    6   -2    0    3    3    0.000002    0.000000
    6   -2    1    1    1   -0.000006    0.000000
    6   -2    1    2    1    0.000013   -0.000000
    6   -2    1    3    1   -0.000002    0.000000
    6   -2    1    1    2    0.000013   -0.000000
    6   -2    1    2    2    0.000004    0.000000
    6   -2    1    3    2   -0.000000   -0.000000
    6   -2    1    1    3   -0.000002    0.000000
    6   -2    1    2    3   -0.000000   -0.000000
    6   -2    1    3    3   -0.000013   -0.000000
    6   -2    2    1    1   -0.000014    0.000000
    6   -2    2    2    1    0.000000   -0.000000
    6   -2    2    3    1    0.000006   -0.000000
    6   -2    2    1    2    0.000000   -0.000000
    6   -2    2    2    2    0.000007   -0.000000
    6   -2    2    3    2   -0.000000   -0.000000
    6   -2    2    1    3    0.000006   -0.000000
    6   -2    2    2    3   -0.000000   -0.000000
    6   -2    2    3    3   -0.000006    0.000000
    6   -1    1    1    1   -0.000005    0.000000
    6   -1    1    2    1    0.000006    0.000000
    6   -1    1    3    1   -0.000003   -0.000000
    6   -1    1    1    2    0.000006    0.000000
    6   -1    1    2    2   -0.000015   -0.000000
    6   -1    1    3    2    0.000012   -0.000000
    6   -1    1    1    3   -0.000003   -0.000000
    6   -1    1    2    3    0.000012   -0.000000
    6   -1    1    3    3   -0.000015    0.000000
    6   -1    2    1    1   -0.000011   -0.000000
    6   -1    2    2    1   -0.000006    0.000000
    6   -1    2    3    1   -0.000005   -0.000000
    6   -1    2    1    2   -0.000006    0.000000
    6   -1    2    2    2   -0.000008   -0.000000
    6   -1    2    3    2   -0.000011   -0.000000
    6   -1    2    1    3   -0.000005   -0.000000
    6   -1    2    2    3   -0.000011   -0.000000
    6   -1    2    3    3   -0.000007    0.000000
    6   -1    3    1    1   -0.000013   -0.000000
    6   -1    3    2    1    0.000000   -0.000000
    6   -1    3    3    1    0.000005   -0.000000
    6   -1    3    1    2    0.000000   -0.000000
    6   -1    3    2    2   -0.000003   -0.000000
    6   -1    3    3    2    0.000000    0.000000
    6   -1    3    1    3    0.000005   -0.000000
    6   -1    3    2    3    0.000000    0.000000
    6   -1    3    3    3   -0.000001    0.000000
    6    0    2    1    1    0.000003   -0.000000
    6    0    2    2    1   -0.000000    0.000000
    6    0    2    3    1   -0.000001   -0.000000
    6    0    2    1    2   -0.000000    0.000000
    6    0    2    2    2    0.000006    0.000000
    6    0    2    3    2   -0.000003    0.000000
    6    0    2    1    3   -0.000001   -0.000000
    6    0    2    2    3   -0.000003    0.000000
    6    0    2    3    3    0.000005   -0.000000
    6    0    3    1    1   -0.000009   -0.000000
    6    0    3    2    1    0.000002    0.000000
    6    0    3    3    1   -0.000006    0.000000
    6    0    3    1    2    0.000002    0.000000
    6    0    3    2    2   -0.000004   -0.000000
    6    0    3    3    2    0.000007    0.000000
    6    0    3    1    3   -0.000006    0.000000
    6    0    3    2    3    0.000007    0.000000
    6    0    3    3    3   -0.000005    0.000000
    6    0    4    1    1    0.000001   -0.000000
    6    0    4    2    1   -0.000000    0.000000
    6    0    4    3    1    0.000002   -0.000000
    6    0    4    1    2   -0.000000    0.000000
    6    0    4    2    2    0.000002    0.000000
    6    0    4    3    2    0.000000   -0.000000
    6    0    4    1    3    0.000002   -0.000000
    6    0    4    2    3    0.000000   -0.000000
    6    0    4    3    3    0.000014   -0.000000
    6    1    2    1    1   -0.000014    0.000000
    6    1    2    2    1    0.000003    0.000000
    6    1    2    3    1    0.000003    0.000000
    6    1    2    1    2    0.000003    0.000000
    6    1    2    2    2   -0.000004   -0.000000
    6    1    2    3    2   -0.000004   -0.000000
    6    1    2    1    3    0.000003    0.000000
    6    1    2    2    3   -0.000004   -0.000000
    6    1    2    3    3   -0.000004   -0.000000
    6    1    3    1    1   -0.000002   -0.000000
    6    1    3    2    1    0.000005    0.000000
    6    1    3    3    1    0.000001   -0.000000
    6    1    3    1    2    0.000005    0.000000
    6    1    3    2    2    0.000002    0.000000
    6    1    3    3    2    0.000005   -0.000000
    6    1    3    1    3    0.000001   -0.000000
    6    1    3    2    3    0.000005   -0.000000
    6    1    3    3    3   -0.000020   -0.000000
    6    1    4    1    1    0.000008   -0.000000
    6    1    4    2    1   -0.000004   -0.000000
    6    1    4    3    1   -0.000008    0.000000
    6    1    4    1    2   -0.000004   -0.000000
    6    1    4    2    2    0.000006   -0.000000
    6    1    4    3    2   -0.000006    0.000000
    6    1    4    1    3   -0.000008    0.000000
    6    1    4    2    3   -0.000006    0.000000
    6    1    4    3    3    0.000001    0.000000
    6    1    5    1    1   -0.000000   -0.000000
    6    1    5    2    1    0.000000   -0.000000
    6    1    5    3    1   -0.000000   -0.000000
    6    1    5    1    2    0.000000   -0.000000
    6    1    5    2    2   -0.000027    0.000000
    6    1    5    3    2    0.000000    0.000000
    6    1    5    1    3   -0.000000   -0.000000
    6    1    5    2    3    0.000000    0.000000
    6    1    5    3    3    0.000052    0.000000
    6    2    3    1    1   -0.000004    0.000000
    6    2    3    2    1    0.000005    0.000000
    6    2    3    3    1   -0.000002   -0.000000
    6    2    3    1    2    0.000005    0.000000
    6    2    3    2    2   -0.000002    0.000000
    6    2    3    3    2    0.000009   -0.000000
    6    2    3    1    3   -0.000002   -0.000000
    6    2    3    2    3    0.000009   -0.000000
    6    2    3    3    3   -0.000004   -0.000000
    6    2    4    1    1   -0.000002   -0.000000
    6    2    4    2    1   -0.000008   -0.000000
    6    2    4    3    1    0.000000   -0.000000
    6    2    4    1    2   -0.000008   -0.000000
    6    2    4    2    2    0.000015   -0.000000
    6    2    4    3    2    0.000000   -0.000000
    6    2    4    1    3    0.000000   -0.000000
    6    2    4    2    3    0.000000   -0.000000
    6    2    4    3    3   -0.000003    0.000000
    6    2    5    1    1    0.000008    0.000000
    6    2    5    2    1   -0.000004    0.000000
    6    2    5    3    1    0.000008    0.000000
    6    2    5    1    2   -0.000004    0.000000
    6    2    5    2    2    0.000006    0.000000
    6    2    5    3    2    0.000006    0.000000
    6    2    5    1    3    0.000008    0.000000
    6    2    5    2    3    0.000006    0.000000
    6    2    5    3    3    0.000001   -0.000000
    6    2    6    1    1    0.000001    0.000000
    6    2    6    2    1    0.000000   -0.000000
    6    2    6    3    1   -0.000002    0.000000
    6    2    6    1    2    0.000000   -0.000000
    6    2    6    2    2    0.000002   -0.000000
    6    2    6    3    2    0.000000   -0.000000
    6    2    6    1    3   -0.000002    0.000000
    6    2    6    2    3    0.000000   -0.000000
    6    2    6    3    3    0.000014    0.000000
    6    3    4    1    1   -0.000004   -0.000000
    6    3    4    2    1    0.000005   -0.000000
    6    3    4    3    1    0.000002   -0.000000
    6    3    4    1    2    0.000005   -0.000000
    6    3    4    2    2   -0.000002   -0.000000
    6    3    4    3    2   -0.000009   -0.000000
    6    3    4    1    3    0.000002   -0.000000
    6    3    4    2    3   -0.000009   -0.000000
    6    3    4    3    3   -0.000004    0.000000
    6    3    5    1    1   -0.000002    0.000000
    6    3    5    2    1    0.000005   -0.000000
    6    3    5    3    1   -0.000001   -0.000000
    6    3    5    1    2    0.000005   -0.000000
    6    3    5    2    2    0.000002   -0.000000
    6    3    5    3    2   -0.000005   -0.000000
    6    3    5    1    3   -0.000001   -0.000000
    6    3    5    2    3   -0.000005   -0.000000
    6    3    5    3    3   -0.000020    0.000000
    6    3    6    1    1   -0.000009    0.000000
    6    3    6    2    1    0.000002   -0.000000
    6    3    6    3    1    0.000006    0.000000
    6    3    6    1    2    0.000002   -0.000000
    6    3    6    2    2   -0.000004    0.000000
    6    3    6    3    2   -0.000007    0.000000
    6    3    6    1    3    0.000006    0.000000
    6    3    6    2    3   -0.000007    0.000000
    6    3    6    3    3   -0.000005   -0.000000
    6    3    7    1    1   -0.000013    0.000000
    6    3    7    2    1   -0.000000    0.000000
    6    3    7    3    1   -0.000005    0.000000
    6    3    7    1    2   -0.000000    0.000000
    6    3    7    2    2   -0.000003   -0.000000
    6    3    7    3    2    0.000000    0.000000
    6    3    7    1    3   -0.000005    0.000000
    6    3    7    2    3    0.000000    0.000000
    6    3    7    3    3   -0.000001   -0.000000
    6    4    5    1    1   -0.000014   -0.000000
    6    4    5    2    1    0.000003   -0.000000
    6    4    5    3    1   -0.000003    0.000000
    6    4    5    1    2    0.000003   -0.000000
    6    4    5    2    2   -0.000004    0.000000
    6    4    5    3    2    0.000004   -0.000000
    6    4    5    1    3   -0.000003    0.000000
    6    4    5    2    3    0.000004   -0.000000
    6    4    5    3    3   -0.000004    0.000000
    6    4    6    1    1    0.000003    0.000000
    6    4    6    2    1   -0.000000   -0.000000
    6    4    6    3    1    0.000001   -0.000000
    6    4    6    1    2   -0.000000   -0.000000
    6    4    6    2    2    0.000006   -0.000000
    6    4    6    3    2    0.000003    0.000000
    6    4    6    1    3    0.000001   -0.000000
    6    4    6    2    3    0.000003    0.000000
    6    4    6    3    3    0.000005    0.000000
    6    4    7    1    1   -0.000011    0.000000
    6    4    7    2    1   -0.000006   -0.000000
    6    4    7    3    1    0.000005   -0.000000
    6    4    7    1    2   -0.000006   -0.000000
    6    4    7    2    2   -0.000008    0.000000
    6    4    7    3    2    0.000011   -0.000000
    6    4    7    1    3    0.000005   -0.000000
    6    4    7    2    3    0.000011   -0.000000
    6    4    7    3    3   -0.000007   -0.000000
    6    4    8    1    1   -0.000014    0.000000
    6    4    8    2    1   -0.000000    0.000000
    6    4    8    3    1   -0.000006   -0.000000
    6    4    8    1    2   -0.000000    0.000000
    6    4    8    2    2    0.000007    0.000000
    6    4    8    3    2   -0.000000   -0.000000
    6    4    8    1    3   -0.000006   -0.000000
    6    4    8    2    3   -0.000000   -0.000000
    6    4    8    3    3   -0.000006   -0.000000
    6    5    7    1    1   -0.000005   -0.000000
    6    5    7    2    1    0.000006   -0.000000
    6    5    7    3    1    0.000003   -0.000000
    6    5    7    1    2    0.000006   -0.000000
    6    5    7    2    2   -0.000015    0.000000
    6    5    7    3    2   -0.000012   -0.000000
    6    5    7    1    3    0.000003   -0.000000
    6    5    7    2    3   -0.000012   -0.000000
    6    5    7    3    3   -0.000015   -0.000000
    6    5    8    1    1   -0.000006    0.000000
    6    5    8    2    1    0.000013    0.000000
    6    5    8    3    1    0.000002    0.000000
    6    5    8    1    2    0.000013    0.000000
    6    5    8    2    2    0.000004   -0.000000
    6    5    8    3    2    0.000000   -0.000000
    6    5    8    1    3    0.000002    0.000000
    6    5    8    2    3    0.000000   -0.000000
    6    5    8    3    3   -0.000013    0.000000
    6    5    9    1    1    0.000018   -0.000000
    6    5    9    2    1   -0.000000    0.000000
    6    5    9    3    1    0.000004   -0.000000
    6    5    9    1    2   -0.000000    0.000000
    6    5    9    2    2    0.000001   -0.000000
    6    5    9    3    2   -0.000000   -0.000000
    6    5    9    1    3    0.000004   -0.000000
    6    5    9    2    3   -0.000000   -0.000000
    6    5    9    3    3    0.000008    0.000000
    6    6    8    1    1   -0.000002    0.000000
    6    6    8    2    1   -0.000001    0.000000
    6    6    8    3    1    0.000001    0.000000
    6    6    8    1    2   -0.000001    0.000000
    6    6    8    2    2    0.000002    0.000000
    6    6    8    3    2   -0.000001    0.000000
    6    6    8    1    3    0.000001    0.000000
    6    6    8    2    3   -0.000001    0.000000
    6    6    8    3    3    0.000002   -0.000000
    6    6    9    1    1    0.000001   -0.000000
    6    6    9    2    1   -0.000004    0.000000
    6    6    9    3    1    0.000004    0.000000
    6    6    9    1    2   -0.000004    0.000000
    6    6    9    2    2   -0.000010   -0.000000
    6    6    9    3    2    0.000004    0.000000
    6    6    9    1    3    0.000004    0.000000
    6    6    9    2    3    0.000004    0.000000
    6    6    9    3    3   -0.000010    0.000000
    6    6   10    1    1    0.000045   -0.000000
    6    6   10    2    1    0.000000    0.000000
    6    6   10    3    1   -0.000000    0.000000
    6    6   10    1    2    0.000000   -0.000000
    6    6   10    2    2   -0.000006    0.000000
    6    6   10    3    2    0.000000   -0.000000
    6    6   10    1    3   -0.000000    0.000000
    6    6   10    2    3    0.000000   -0.000000
    6    6   10    3    3   -0.000006   -0.000000
    6    7    9    1    1   -0.000007    0.000000
    6    7    9    2    1   -0.000003    0.000000
    6    7    9    3    1   -0.000000    0.000000
    6    7    9    1    2   -0.000003    0.000000
    6    7    9    2    2   -0.000001    0.000000
    6    7    9    3    2   -0.000000    0.000000
    6    7    9    1    3   -0.000000    0.000000
    6    7    9    2    3   -0.000000    0.000000
    6    7    9    3    3   -0.000018    0.000000
    7   -3    0    1    1    0.000011    0.000000
    7   -3    0    2    1    0.000000   -0.000000
    7   -3    0    3    1   -0.000000    0.000000
    7   -3    0    1    2    0.000000   -0.000000
    7   -3    0    2    2    0.000006    0.000000
    7   -3    0    3    2   -0.000000   -0.000000
    7   -3    0    1    3   -0.000000    0.000000
    7   -3    0    2    3   -0.000000   -0.000000
    7   -3    0    3    3    0.000006    0.000000
    7   -2    1    1    1   -0.000007    0.000000
    7   -2    1    2    1    0.000000   -0.000000
    7   -2    1    3    1   -0.000003   -0.000000
    7   -2    1    1    2    0.000000   -0.000000
    7   -2    1    2    2   -0.000018    0.000000
    7   -2    1    3    2    0.000000   -0.000000
    7   -2    1    1    3   -0.000003   -0.000000
    7   -2    1    2    3    0.000000   -0.000000
    7   -2    1    3    3   -0.000001   -0.000000
    7   -1    2    1    1   -0.000012    0.000000
    7   -1    2    2    1    0.000000   -0.000000
    7   -1    2    3    1   -0.000002    0.000000
    7   -1    2    1    2    0.000000   -0.000000
    7   -1    2    2    2   -0.000016    0.000000
    7   -1    2    3    2    0.000000   -0.000000
    7   -1    2    1    3   -0.000002    0.000000
    7   -1    2    2    3    0.000000   -0.000000
    7   -1    2    3    3   -0.000021    0.000000
    7    0    3    1    1    0.000001    0.000000
    7    0    3    2    1   -0.000000    0.000000
    7    0    3    3    1   -0.000001   -0.000000
    7    0    3    1    2   -0.000000    0.000000
    7    0    3    2    2   -0.000004    0.000000
    7    0    3    3    2   -0.000000    0.000000
    7    0    3    1    3   -0.000001   -0.000000
    7    0    3    2    3   -0.000000    0.000000
    7    0    3    3    3    0.000007    0.000000
    7    1    4    1    1   -0.000005    0.000000
    7    1    4    2    1   -0.000000    0.000000
    7    1    4    3    1   -0.000009    0.000000
    7    1    4    1    2   -0.000000    0.000000
    7    1    4    2    2    0.000009    0.000000
    7    1    4    3    2   -0.000000    0.000000
    7    1    4    1    3   -0.000009    0.000000
    7    1    4    2    3   -0.000000    0.000000
    7    1    4    3    3    0.000018    0.000000
    7    2    4    1    1    0.000001    0.000000
    7    2    4    2    1    0.000003   -0.000000
    7    2    4    3    1    0.000003   -0.000000
    7    2    4    1    2    0.000003   -0.000000
    7    2    4    2    2   -0.000008   -0.000000
    7    2    4    3    2    0.000004   -0.000000
    7    2    4    1    3    0.000003   -0.000000
    7    2    4    2    3    0.000004   -0.000000
    7    2    4    3    3   -0.000008   -0.000000
    7    2    5    1    1    0.000014   -0.000000
    7    2    5    2    1    0.000000   -0.000000
    7    2    5    3    1    0.000000   -0.000000
    7    2    5    1    2    0.000000   -0.000000
    7    2    5    2    2   -0.000001   -0.000000
    7    2    5    3    2    0.000000   -0.000000
    7    2    5    1    3    0.000000   -0.000000
    7    2    5    2    3    0.000000   -0.000000
    7    2    5    3    3    0.000043   -0.000000
    7    3    5    1    1    0.000001   -0.000000
    7    3    5    2    1    0.000003    0.000000
    7    3    5    3    1   -0.000003   -0.000000
    7    3    5    1    2    0.000003    0.000000
    7    3    5    2    2   -0.000008    0.000000
    7    3    5    3    2   -0.000004   -0.000000
    7    3    5    1    3   -0.000003   -0.000000
    7    3    5    2    3   -0.000004   -0.000000
    7    3    5    3    3   -0.000008    0.000000
    7    3    6    1    1   -0.000005   -0.000000
    7    3    6    2    1    0.000000   -0.000000
    7    3    6    3    1    0.000009    0.000000
    7    3    6    1    2    0.000000   -0.000000
    7    3    6    2    2    0.000009   -0.000000
    7    3    6    3    2   -0.000000    0.000000
    7    3    6    1    3    0.000009    0.000000
    7    3    6    2    3   -0.000000    0.000000
    7    3    6    3    3    0.000018    0.000000
    7    4    7    1    1    0.000001    0.000000
    7    4    7    2    1    0.000000   -0.000000
    7    4    7    3    1    0.000001    0.000000
    7    4    7    1    2    0.000000   -0.000000
    7    4    7    2    2   -0.000004    0.000000
    7    4    7    3    2   -0.000000    0.000000
    7    4    7    1    3    0.000001    0.000000
    7    4    7    2    3   -0.000000    0.000000
    7    4    7    3    3    0.000007   -0.000000
    7    5    8    1    1   -0.000012    0.000000
    7    5    8    2    1   -0.000000    0.000000
    7    5    8    3    1    0.000002    0.000000
    7    5    8    1    2   -0.000000    0.000000
    7    5    8    2    2   -0.000016    0.000000
    7    5    8    3    2    0.000000   -0.000000
    7    5    8    1    3    0.000002    0.000000
    7    5    8    2    3    0.000000   -0.000000
    7    5    8    3    3   -0.000021   -0.000000
    7    6    9    1    1   -0.000007    0.000000
    7    6    9    2    1   -0.000000    0.000000
    7    6    9    3    1    0.000003    0.000000
    7    6    9    1    2   -0.000000    0.000000
    7    6    9    2    2   -0.000018   -0.000000
    7    6    9    3    2    0.000000   -0.000000
    7    6    9    1    3    0.000003    0.000000
    7    6    9    2    3    0.000000   -0.000000
    7    6    9    3    3   -0.000001    0.000000
    7    7   10    1    1    0.000011    0.000000
    7    7   10    2    1    0.000000   -0.000000
    7    7   10    3    1   -0.000000    0.000000
    7    7   10    1    2    0.000000   -0.000000
    7    7   10    2    2    0.000006    0.000000
    7    7   10    3    2   -0.000000   -0.000000
    7    7   10    1    3   -0.000000    0.000000
    7    7   10    2    3   -0.000000   -0.000000
    7    7   10    3    3    0.000006    0.000000
